
   22  0.0000000e+00
  37.9000000  30.2900000  48.5300000  37.4900000  30.7200000  47.7600000
  37.5900000  28.9800000  48.6000000  37.2800000  28.3000000  47.4000000
  37.3100000  28.8100000  46.4400000  36.8900000  26.9800000  47.3800000
  36.5900000  26.4500000  46.4800000  36.7900000  26.2700000  48.6100000
  36.4000000  25.2600000  48.5400000  37.0600000  27.0000000  49.8200000
  36.9900000  26.3700000  50.7000000  37.5000000  28.3600000  49.8800000
  37.8000000  29.1000000  51.1500000  37.1400000  28.6000000  51.8700000
  37.4500000  30.1400000  51.1600000  39.2200000  29.1100000  51.7100000
  39.7700000  30.0000000  51.3600000  39.7800000  28.2400000  51.3600000
  39.0500000  29.1600000  53.2300000  40.0200000  29.5200000  53.5900000
  38.9700000  28.1900000  53.7300000  38.2800000  29.8600000  53.5800000
