Cpptraj Generated Restart                                                       
   22  0.0000000E+00
  37.9000020  30.2900004  48.5300016  37.4900007  30.7200003  47.7600002
  37.5900006  28.9800024  48.6000013  37.2800016  28.3000016  47.4000025
  37.3100019  28.8100004  46.4400005  36.8900013  26.9800019  47.3800039
  36.5900016  26.4500022  46.4800024  36.7900014  26.2700009  48.6100006
  36.4000010  25.2600002  48.5400009  37.0600009  27.0000005  49.8200035
  36.9900012  26.3700008  50.7000017  37.5000024  28.3600020  49.8800039
  37.8000021  29.1000009  51.1500025  37.1400023  28.6000013  51.8700027
  37.4500012  30.1400018  51.1600018  39.2200017  29.1100025  51.7100048
  39.7700024  30.0000024  51.3600016  39.7800016  28.2400012  51.3600016
  39.0500021  29.1600013  53.2300043  40.0200033  29.5200014  53.5900021
  38.9700007  28.1900024  53.7300014  38.2800007  29.8600006  53.5800028
