
 2623  0.0000000e+00
  17.6100000  38.0800000  44.4200000  18.0000000  37.2900000  43.7900000
  18.0100000  37.3700000  42.7000000  17.3300000  36.4500000  43.9900000
  19.3800000  36.9700000  44.2200000  19.6500000  36.0000000  44.8600000
  20.2500000  37.9300000  43.8800000  19.8600000  38.7900000  43.5100000
  21.7100000  37.8200000  43.8900000  22.0400000  38.7300000  43.3800000
  22.1900000  37.9200000  45.3600000  21.6100000  37.2600000  46.0000000
  23.1900000  37.4800000  45.3700000  22.1800000  39.3300000  45.8600000
  21.1300000  39.6500000  45.8100000  22.5800000  39.3300000  46.8700000
  23.2400000  40.4300000  44.9900000  24.8000000  39.6400000  45.0400000
  25.0500000  38.9700000  44.2200000  25.5200000  40.4600000  45.0700000
  24.9600000  39.0300000  45.9400000  22.3500000  36.6200000  43.1100000
  21.5900000  35.6900000  42.7100000  23.6600000  36.5400000  42.8500000
  24.2200000  37.3600000  43.0100000  24.4500000  35.4200000  42.2700000
  24.3000000  34.5200000  42.8600000  24.0400000  35.1800000  40.8200000
  24.6700000  34.5000000  40.2500000  23.0100000  34.8200000  40.7900000
  24.0800000  36.4800000  40.0200000  25.1300000  37.1100000  39.8200000
  22.9500000  36.8400000  39.5500000  22.8400000  37.7700000  39.1800000
  22.0800000  36.3700000  39.7800000  25.9200000  35.9400000  42.3000000
  26.1800000  37.1300000  42.5900000  26.8700000  35.0600000  41.9300000
  26.5300000  34.1100000  41.9300000  28.3400000  35.4500000  41.9900000
  28.4000000  35.8600000  43.0000000  29.2100000  34.2800000  41.7200000
  29.0000000  33.4600000  42.4100000  29.0600000  33.6600000  40.3300000
  29.2700000  34.4600000  39.6200000  29.7800000  32.8400000  40.2800000
  28.0700000  33.2400000  40.1200000  30.7000000  34.6700000  41.8700000
  31.4000000  33.9000000  41.5500000  31.0400000  35.4100000  41.1400000
  31.0800000  35.1200000  43.3200000  30.7100000  34.3200000  43.9500000
  32.1600000  35.2500000  43.4100000  30.6200000  36.0600000  43.6300000
  28.6100000  36.6200000  41.0800000  29.4300000  37.4800000  41.5400000
  27.9300000  36.8500000  39.9600000  27.2900000  36.1100000  39.7100000
  28.1800000  38.0200000  39.0800000  29.2600000  38.0300000  38.9400000
  27.5700000  37.8100000  37.7400000  26.4900000  37.6500000  37.7400000
  27.7500000  38.6300000  37.0400000  28.1300000  36.6200000  36.9200000
  27.4900000  35.4100000  36.9100000  26.6500000  35.1900000  37.5500000
  28.0000000  34.3500000  36.1000000  27.5100000  33.4000000  36.1800000
  29.1400000  34.4700000  35.3900000  29.6700000  33.6900000  34.8700000
  29.7400000  35.7600000  35.3800000  30.6100000  35.9300000  34.7600000
  29.2900000  36.8200000  36.1700000  29.6700000  37.8300000  36.1600000
  27.8200000  39.2800000  39.7500000  28.4700000  40.3200000  39.6400000
  26.6500000  39.3200000  40.3800000  26.1400000  38.4500000  40.4300000
  26.1800000  40.4900000  41.1200000  26.1800000  41.3800000  40.4900000
  24.6800000  40.2000000  41.3900000  24.4600000  39.2000000  41.7500000
  24.4300000  40.7700000  42.2800000  23.8000000  40.6000000  40.2100000
  23.9000000  41.6800000  40.0900000  24.1300000  40.1200000  39.2900000
  22.3500000  40.2500000  40.4800000  21.7800000  40.5000000  41.6000000
  21.6600000  39.7700000  39.5300000  27.0600000  40.7400000  42.3900000
  27.3100000  41.8900000  42.6900000  27.7000000  39.7000000  42.9800000
  27.4900000  38.7900000  42.6100000  28.5300000  39.8100000  44.1700000
  27.9100000  40.3800000  44.8700000  28.7400000  38.4100000  44.6900000
  27.7500000  37.9500000  44.7600000  29.4000000  37.8800000  44.0100000
  29.2000000  38.4300000  46.1600000  30.0200000  39.1400000  46.2000000
  28.3700000  38.7100000  46.8200000  29.8400000  36.7900000  46.7200000
  30.0300000  36.9900000  48.5800000  29.0900000  37.3500000  49.0000000
  30.3500000  36.0900000  49.1000000  30.7400000  37.7900000  48.8000000
  29.8700000  40.4400000  43.8400000  30.2600000  41.4600000  44.4000000
  30.5900000  39.8700000  42.9100000  30.4100000  38.9700000  42.4900000
  31.8500000  40.4800000  42.5200000  32.5300000  40.7300000  43.3400000
  32.5500000  39.4900000  41.5800000  31.7300000  39.0500000  41.0100000
  33.2300000  40.1300000  41.0200000  33.3100000  38.3800000  42.3500000
  32.6500000  37.9100000  43.0800000  33.7700000  37.3000000  41.4100000
  34.3300000  37.8400000  40.6500000  34.3500000  36.5400000  41.9400000
  32.9100000  36.7500000  41.0400000  34.5700000  38.9300000  42.9400000
  34.4100000  39.8100000  43.5600000  34.9800000  38.1600000  43.5800000
  35.2200000  39.2300000  42.1100000  31.6200000  41.8200000  41.7400000
  32.5500000  42.7000000  41.8100000  30.4800000  42.0400000  41.0100000
  29.7600000  41.3500000  41.0900000  30.1800000  43.3000000  40.4200000
  31.0600000  43.5700000  39.8400000  29.0000000  43.2200000  39.4500000
  29.2100000  42.5700000  38.6100000  28.2200000  42.7700000  40.0600000
  28.3900000  44.4600000  39.0100000  27.5200000  44.1100000  38.4500000
  28.0300000  45.0700000  39.8400000  29.4300000  45.2200000  38.1200000
  30.3700000  45.3200000  38.6600000  29.6300000  44.6200000  37.2300000
  28.9400000  46.5100000  37.6700000  28.3400000  46.4700000  36.8600000
  29.1200000  47.7100000  38.2900000  29.8200000  47.8300000  39.3700000
  30.2600000  46.9900000  39.7100000  29.6200000  48.6300000  39.9600000
  28.5700000  48.8300000  37.9200000  28.0700000  48.8300000  37.0500000
  28.7500000  49.7000000  38.4000000  30.0900000  44.4800000  41.4600000
  30.7100000  45.5500000  41.2500000  29.4700000  44.1900000  42.6200000
  29.0900000  43.2600000  42.7500000  29.3900000  45.0700000  43.7800000
  28.9100000  45.9800000  43.4000000  28.5300000  44.4800000  44.8800000
  28.7700000  43.4200000  44.8300000  28.7900000  44.8600000  46.3100000
  28.9700000  45.9300000  46.3500000  28.0200000  44.7100000  47.0600000
  29.7400000  44.4100000  46.6000000  26.9900000  44.6200000  44.5500000
  26.6600000  45.6100000  44.8600000  26.8900000  44.4500000  43.4800000
  26.0400000  43.7100000  45.2900000  25.9800000  44.1200000  46.3000000
  25.1300000  43.7900000  44.7000000  26.3900000  42.6800000  45.2600000
  30.8000000  45.3600000  44.2900000  31.1900000  46.5300000  44.3600000
  31.6200000  44.3500000  44.6300000  31.3500000  43.3800000  44.4800000
  32.9200000  44.4800000  45.2800000  32.7000000  45.1800000  46.0900000
  33.3100000  43.1000000  45.8400000  33.3900000  42.4400000  44.9800000
  34.3600000  43.1600000  46.1500000  32.4900000  42.3800000  46.8500000
  31.8300000  43.1300000  47.5700000  32.8000000  41.2100000  47.1300000
  34.0600000  44.9200000  44.3500000  34.8500000  45.7700000  44.7900000
  34.0700000  44.6100000  43.1100000  33.4900000  43.8300000  42.8100000
  35.0800000  44.8900000  42.0900000  35.9900000  45.1600000  42.6200000
  35.4200000  43.7300000  41.1200000  34.5300000  43.4900000  40.5300000
  36.2200000  44.1300000  40.5100000  35.9100000  42.4400000  41.7900000
  35.3900000  42.2100000  42.7100000  35.8000000  41.5300000  41.2000000
  37.3800000  42.4900000  42.1900000  38.0000000  43.5700000  42.1100000
  38.0400000  41.4900000  42.6400000  34.7800000  46.1100000  41.2000000
  35.5900000  46.5100000  40.3700000  33.5500000  46.6800000  41.4000000
  32.9200000  46.1300000  41.9600000  33.1700000  47.9200000  40.6300000
  32.1600000  48.2700000  40.8500000  33.8000000  48.8000000  40.7700000
  33.1500000  47.6800000  39.1100000  32.8700000  46.5800000  38.6800000
  33.2600000  48.7500000  38.2800000  33.5300000  49.6300000  38.6900000
  33.2700000  48.6600000  36.8100000  33.9600000  47.8600000  36.5700000
  31.8600000  48.4400000  36.1900000  31.4900000  47.4600000  36.5000000
  31.1800000  49.2400000  36.4800000  31.9500000  48.5800000  34.6600000
  32.5200000  49.4700000  34.3900000  32.5300000  47.2900000  34.0200000
  31.9000000  46.4100000  34.1200000  32.7600000  47.4600000  32.9700000
  33.5100000  46.9900000  34.4100000  30.4700000  48.6900000  34.1300000
  29.9700000  49.4300000  34.7600000  30.5600000  48.9700000  33.0800000
  29.9400000  47.7700000  34.3400000  34.0500000  49.9100000  36.3700000
  33.6100000  51.0400000  36.7100000  35.1900000  49.7600000  35.7600000
  35.4700000  48.8500000  35.4500000  35.9500000  50.8900000  35.2500000
  35.3600000  51.8000000  35.2300000  37.1300000  51.2600000  36.1600000
  37.7500000  50.4100000  36.4300000  37.7700000  52.0100000  35.7000000
  36.6500000  51.7900000  37.5600000  35.9900000  52.6600000  37.4800000
  36.0500000  50.9900000  38.0000000  37.8600000  52.1800000  38.4300000
  37.5400000  52.2600000  39.4600000  38.6200000  51.4000000  38.3900000
  38.4800000  53.4200000  37.9400000  38.0100000  54.0300000  37.2900000
  39.5800000  53.9500000  38.5100000  40.2300000  53.2900000  39.4000000
  39.8900000  52.4600000  39.8800000  41.1800000  53.5900000  39.5400000
  40.1200000  55.1200000  38.2700000  39.7400000  55.6700000  37.5100000
  40.9200000  55.3300000  38.8500000  36.4900000  50.5000000  33.8300000
  37.1000000  49.4400000  33.6200000  36.2600000  51.2900000  32.7900000
  35.6400000  52.0600000  32.9900000  36.5900000  50.9600000  31.3900000
  36.5100000  49.8800000  31.2900000  35.5100000  51.5300000  30.4800000
  35.5400000  52.6200000  30.5600000  35.7500000  51.1300000  29.5000000
  34.0900000  51.0100000  30.7800000  33.8700000  51.4100000  31.7700000
  33.1200000  51.5100000  29.7000000  33.3600000  51.0600000  28.7500000
  32.1000000  51.2200000  29.9500000  33.2600000  52.5900000  29.7400000
  33.9300000  49.4700000  30.8000000  34.6600000  48.8800000  31.3400000
  32.8900000  49.1900000  31.0100000  34.1100000  49.2100000  29.7500000
  38.0500000  51.2700000  30.8600000  38.5300000  50.6000000  29.9500000
  38.7100000  52.3000000  31.4300000  38.2400000  52.9100000  32.0800000
  40.1000000  52.5100000  31.2000000  40.3700000  52.1800000  30.1900000
  40.3300000  54.0900000  31.3200000  40.2300000  54.3000000  32.3800000
  41.2900000  54.4800000  30.9800000  39.2600000  55.0500000  30.7200000
  39.4000000  54.9700000  29.6400000  38.2900000  54.7300000  31.1200000
  39.5500000  56.4500000  31.2700000  39.2300000  56.4500000  32.3100000
  40.6100000  56.6800000  31.2400000  38.7500000  57.5200000  30.5100000
  38.9800000  57.5200000  29.4500000  37.7200000  57.1800000  30.6700000
  38.9300000  58.8700000  31.0900000  39.9000000  59.1400000  31.2000000
  38.4400000  59.5600000  30.5300000  38.4200000  58.9400000  31.9600000
  41.0100000  51.7400000  32.2000000  40.5800000  51.1900000  33.1800000
  42.3300000  51.5600000  31.9100000  42.7300000  51.8800000  31.0400000
  43.2600000  50.8100000  32.7800000  42.8000000  49.8500000  33.0100000
  44.6300000  50.5900000  32.1300000  44.8700000  51.5100000  31.6000000
  45.7800000  50.2600000  33.1000000  45.5800000  49.3400000  33.6500000
  46.7700000  50.2100000  32.6500000  45.8800000  51.1100000  33.7600000
  44.5000000  49.4900000  31.1100000  44.3700000  48.5400000  31.6300000
  43.7600000  49.7300000  30.3500000  45.7600000  49.2500000  30.1900000
  46.5300000  48.8200000  30.8300000  45.5700000  48.5300000  29.4000000
  46.0800000  50.1800000  29.7300000  43.4200000  51.5700000  34.1100000
  43.6400000  52.8300000  34.1800000  43.2100000  50.8100000  35.2200000
  43.0300000  49.8200000  35.1100000  43.4200000  51.2900000  36.5600000
  43.9300000  52.2600000  36.5300000  41.9900000  51.4900000  37.1900000
  42.0400000  52.1100000  38.0800000  41.4200000  52.0700000  36.4600000
  41.2200000  50.2400000  37.5200000  41.4100000  49.4600000  38.7100000
  42.0400000  49.7600000  39.5400000  40.6500000  48.3700000  38.9800000
  40.7700000  47.8400000  39.9100000  39.7500000  47.8600000  38.0100000
  38.9500000  46.7700000  38.3300000  38.8100000  46.7000000  39.2800000
  39.5300000  48.6000000  36.8200000  38.7800000  48.2300000  36.1300000
  40.3300000  49.7000000  36.5900000  40.1500000  50.3800000  35.7800000
  44.2900000  50.3900000  37.4400000  44.4500000  49.2200000  37.1000000
  44.7500000  50.8300000  38.6600000  44.3900000  51.7200000  38.9700000
  45.4700000  50.0600000  39.6800000  46.0000000  49.2400000  39.1800000
  46.5100000  50.8800000  40.3300000  46.1200000  51.7200000  40.9000000
  46.9400000  50.2300000  41.0900000  47.5700000  51.4000000  39.3500000
  47.9100000  50.6700000  38.6200000  47.0700000  52.2400000  38.8700000
  48.8800000  51.9900000  40.0200000  48.5500000  52.6600000  40.8100000
  49.3300000  51.0500000  40.3700000  49.8800000  52.7200000  39.0400000
  50.0100000  52.0500000  38.1900000  49.5800000  53.7400000  38.8100000
  51.1200000  52.8400000  39.7600000  51.4100000  51.9500000  40.1500000
  51.9400000  53.0800000  39.2200000  50.9900000  53.5000000  40.5200000
  44.6300000  49.4700000  40.7500000  43.7800000  50.1800000  41.2600000
  44.7700000  48.1500000  41.0400000  45.4800000  47.7000000  40.4700000
  44.0300000  47.4300000  42.1000000  42.9700000  47.6700000  42.0800000
  44.0300000  45.9300000  41.7600000  43.1800000  45.5200000  42.3200000
  43.8600000  45.8500000  40.6800000  45.2800000  45.1300000  42.3400000
  46.2500000  45.8200000  42.6400000  45.2000000  43.9400000  42.5900000
  44.5300000  47.7600000  43.4900000  45.4400000  48.6600000  43.5500000
  43.9700000  47.2000000  44.5300000  43.2000000  46.5500000  44.4400000
  44.3000000  47.5000000  45.9300000  44.2800000  48.5900000  46.0300000
  43.3800000  46.9600000  46.9300000  42.3900000  46.9700000  46.4600000
  43.7100000  45.4900000  47.2400000  42.8200000  44.9500000  47.5900000
  44.1600000  45.0500000  46.3500000  44.4100000  45.4700000  48.0800000
  43.3600000  47.7300000  48.1500000  43.1200000  48.6300000  47.9200000
  45.7700000  47.2000000  46.3100000  46.3100000  47.9100000  47.1800000
  46.4700000  46.2100000  45.7400000  46.0200000  45.6400000  45.0500000
  47.8900000  46.0200000  45.8900000  48.1300000  46.1700000  46.9400000
  48.2600000  44.5900000  45.3900000  47.9600000  44.5900000  44.3400000
  49.3400000  44.4500000  45.3500000  47.5700000  43.5200000  46.1900000
  46.4800000  43.5300000  46.1900000  47.7700000  42.5400000  45.7600000
  48.0100000  43.6500000  47.6400000  49.1900000  43.4000000  48.0300000
  47.2000000  44.0700000  48.5000000  48.7300000  47.0300000  45.0800000
  49.8200000  47.4200000  45.4800000  48.2200000  47.4200000  43.9300000
  47.2800000  47.1000000  43.7300000  48.8000000  48.3700000  43.0300000
  48.2500000  49.3100000  43.0900000  49.8600000  48.4600000  43.2600000
  48.8000000  47.9100000  41.5800000  49.2200000  48.6000000  40.6500000
  48.4300000  46.6500000  41.3500000  47.9300000  46.2500000  42.1400000
  48.6000000  45.9900000  40.0200000  49.6500000  46.1100000  39.7400000
  48.5000000  44.5000000  40.2400000  47.4600000  44.2800000  40.4800000
  48.7200000  44.0400000  39.2800000  49.3300000  43.8200000  41.2500000
  50.6800000  44.0900000  41.3300000  51.1800000  44.7800000  40.6800000
  51.4700000  43.3800000  42.3000000  52.5400000  43.4800000  42.3700000
  50.8500000  42.3900000  43.1000000  51.6600000  41.6600000  43.8700000
  52.4700000  42.1100000  44.0900000  49.4900000  42.2100000  43.0800000
  49.0200000  41.4900000  43.7300000  48.7200000  42.9600000  42.1600000
  47.6500000  43.0100000  42.3100000  47.6700000  46.5500000  38.9100000
  46.4800000  46.9200000  39.1100000  48.0800000  46.5700000  37.6100000
  48.9300000  46.1000000  37.3500000  47.2100000  47.1400000  36.5300000
  46.6600000  47.9900000  36.9300000  48.0900000  47.4900000  35.3500000
  48.5600000  46.5700000  35.0200000  47.4700000  47.8000000  34.5100000
  49.1500000  48.6000000  35.5700000  50.4800000  48.3600000  35.2900000
  50.7900000  47.3800000  34.9700000  51.4100000  49.4700000  35.1600000
  52.4000000  49.2200000  34.8200000  50.9300000  50.7600000  35.4100000
  51.7700000  51.8500000  35.2900000  52.6500000  51.5400000  35.5300000
  49.6300000  50.9800000  35.8600000  49.3100000  52.0100000  35.9300000
  48.7200000  49.9000000  35.8900000  47.6800000  50.1000000  36.1000000
  46.2200000  46.1200000  36.1500000  46.4000000  44.9200000  36.1200000
  45.0200000  46.6900000  35.9400000  44.8700000  47.6800000  36.0900000
  43.7100000  45.9500000  35.9400000  43.8300000  44.9200000  35.5900000
  43.2100000  45.9600000  37.4100000  42.9800000  46.9700000  37.7600000
  41.9500000  45.2400000  37.7100000  42.0900000  44.1800000  37.5400000
  41.6100000  45.6000000  38.6900000  41.1400000  45.5400000  37.0400000
  44.1600000  45.3600000  38.2500000  44.9300000  45.9100000  38.4200000
  42.7700000  46.7100000  35.0000000  43.0400000  47.8300000  34.5400000
  41.5500000  46.1800000  34.6700000  41.3800000  45.2400000  35.0100000
  40.5100000  46.8400000  33.8800000  40.2200000  47.7600000  34.3800000
  40.8600000  46.8100000  32.3600000  41.9300000  47.0400000  32.3400000
  40.5700000  45.4600000  31.6700000  39.5200000  45.2000000  31.7000000
  40.8900000  45.3700000  30.6300000  41.1600000  44.7600000  32.2700000
  40.2200000  47.9600000  31.5600000  39.2000000  47.6000000  31.4600000
  40.3500000  48.9000000  32.1000000  40.8700000  48.2900000  30.2300000
  40.6800000  47.5000000  29.5000000  40.4500000  49.2100000  29.8100000
  41.9500000  48.3500000  30.3500000  39.1900000  46.0900000  34.1100000
  39.1600000  44.9800000  34.6100000  38.0500000  46.7400000  33.8100000
  38.1100000  47.7300000  33.6100000  36.7900000  46.1300000  33.7100000
  36.1100000  46.7500000  33.1200000  36.8600000  45.0700000  33.4400000
  36.0800000  46.0900000  35.0600000  36.1700000  47.0000000  35.8500000
  35.6200000  44.8700000  35.3400000  35.5500000  44.2300000  34.5700000
  35.2600000  44.4000000  36.6800000  35.0300000  45.3100000  37.2500000
  33.9200000  43.5700000  36.6200000  34.1400000  42.6900000  36.0200000
  33.4300000  43.1600000  38.0000000  33.3800000  44.0700000  38.5900000
  32.5100000  42.5600000  37.9700000  34.2900000  42.6400000  38.4100000
  32.7200000  44.2900000  35.8900000  32.3000000  45.0600000  36.5500000
  33.0300000  44.6500000  34.9100000  31.5500000  43.2900000  35.5300000
  30.8200000  43.6200000  34.8000000  31.9900000  42.3800000  35.1300000
  30.9500000  43.1200000  36.4200000  36.4900000  43.5600000  37.2900000
  36.3500000  42.3600000  37.5500000  37.6600000  44.1700000  37.5100000
  37.7400000  45.1500000  37.2400000  38.7500000  43.4900000  38.2800000
  39.4700000  44.2900000  38.4600000  38.3800000  43.1400000  39.2500000
  39.5200000  42.3700000  37.5700000  39.9200000  41.4600000  38.2700000
  39.6500000  42.4600000  36.2500000  39.2400000  43.2800000  35.8300000
  40.4600000  41.6200000  35.4300000  40.3700000  40.6000000  35.7900000
  39.9800000  41.6600000  33.9000000  38.9800000  41.2400000  33.8800000
  39.8500000  42.6500000  33.4600000  40.9200000  40.8700000  33.0100000
  40.9100000  39.5100000  32.6600000  42.0700000  39.2700000  31.9300000
  42.3600000  38.3400000  31.4700000  42.8000000  40.4400000  31.8100000
  43.7700000  40.4800000  31.5500000  42.1300000  41.3600000  32.5700000
  42.4800000  42.3500000  32.8400000  41.9100000  42.0900000  35.6300000
  42.3600000  43.0800000  35.0200000  42.6600000  41.4200000  36.4900000
  42.2300000  40.5900000  36.8700000  44.1600000  41.6200000  36.7000000
  44.2300000  42.6400000  37.0800000  44.5600000  40.6700000  37.8700000
  43.9800000  40.8100000  38.7800000  44.4400000  39.6100000  37.6500000
  46.0700000  40.7900000  38.2700000  46.7700000  40.6400000  37.4500000
  46.4800000  42.1200000  38.8000000  45.9000000  42.3100000  39.7100000
  47.5100000  42.0600000  39.1500000  46.3000000  42.9900000  38.1700000
  46.4800000  39.8100000  39.4700000  45.9300000  40.1100000  40.3600000
  46.2300000  38.7900000  39.1800000  47.5600000  39.8300000  39.6300000
  44.9900000  41.4900000  35.4200000  45.1200000  40.3400000  34.9400000
  45.4800000  42.5600000  34.8600000  45.4200000  43.4300000  35.3700000
  46.1500000  42.5600000  33.5700000  45.7000000  41.8000000  32.9400000
  46.1800000  43.8800000  32.8600000  46.6800000  44.6500000  33.4300000
  46.8300000  43.7500000  32.0000000  44.8000000  44.4300000  32.3700000
  44.0400000  44.2000000  33.1100000  44.8700000  45.9400000  32.1800000
  45.7400000  46.2800000  31.6200000  44.0200000  46.3600000  31.6500000
  44.8200000  46.4100000  33.1600000  44.4800000  43.8100000  31.0100000
  44.5200000  42.7300000  31.1500000  43.5000000  44.0400000  30.5800000
  45.1700000  44.0800000  30.2000000  47.6000000  42.1400000  33.7700000
  48.2000000  41.4200000  32.9900000  48.2900000  42.7000000  34.7200000
  47.8900000  43.4300000  35.2900000  49.7000000  42.4000000  35.0400000
  49.9700000  41.3400000  35.0200000  50.6400000  42.9800000  33.9500000
  50.4600000  42.5000000  32.9900000  50.6200000  44.5000000  33.7500000
  50.8300000  44.8800000  34.7600000  51.3000000  44.8100000  32.9600000
  49.6100000  44.7600000  33.4400000  51.9500000  42.5600000  34.3200000
  52.2500000  41.8700000  33.7200000  50.1300000  42.9800000  36.4200000
  49.6700000  44.0200000  36.8500000  51.1300000  42.3600000  37.1300000
  51.4700000  41.5200000  36.6800000  51.8500000  42.7700000  38.3900000
  51.0300000  43.3100000  38.8600000  52.2500000  41.5600000  39.2700000
  52.9800000  40.8700000  38.8600000  52.7600000  41.9900000  40.1400000
  51.0600000  40.7100000  39.7700000  50.2700000  41.3500000  40.1700000
  50.6000000  40.2100000  38.9200000  51.3900000  39.7000000  40.8200000
  52.1900000  39.1000000  40.3700000  51.8600000  40.2400000  41.6400000
  50.2100000  38.8000000  41.2200000  49.5000000  39.4100000  41.7800000
  49.7400000  38.3800000  40.3300000  50.5700000  37.7300000  42.1700000
  50.9100000  38.1100000  43.0300000  49.8100000  37.1600000  42.5100000
  51.2100000  37.0600000  41.7600000  53.1100000  43.6500000  38.1000000
  53.6900000  44.2200000  39.0300000  53.4700000  43.8700000  36.8300000
  53.0600000  43.2900000  36.1100000  54.5800000  44.7400000  36.3900000
  55.4900000  44.4200000  36.9000000  54.9100000  44.4200000  34.9300000
  55.1600000  43.3600000  34.8300000  54.0200000  44.5400000  34.3200000
  55.9900000  45.1400000  34.4700000  56.1400000  44.8800000  33.5600000
  54.2500000  46.2400000  36.5300000  53.0800000  46.6200000  36.3700000
  55.2900000  47.1300000  36.8000000  56.6600000  46.7900000  37.3000000
  57.1800000  46.1900000  36.5500000  56.6600000  46.4200000  38.3200000
  57.3200000  48.0900000  37.3600000  57.6700000  48.4300000  36.3800000
  58.1300000  48.0100000  38.0800000  56.1300000  49.0500000  37.7900000
  56.4700000  50.0700000  37.6100000  55.9300000  48.8900000  38.8500000
  54.9500000  48.5700000  36.9100000  54.0200000  48.8400000  37.4100000
  54.8400000  49.2200000  35.5700000  54.3900000  50.3700000  35.5800000
  55.1700000  48.5500000  34.4500000  55.6000000  47.6400000  34.5400000
  55.1100000  49.1800000  33.0600000  55.5200000  50.1900000  33.0800000
  56.0200000  48.4500000  32.1100000  57.0100000  48.5400000  32.5400000
  55.7200000  47.4000000  32.1700000  56.0100000  49.0700000  30.6900000
  55.8800000  50.3100000  30.5300000  56.1900000  48.2900000  29.6900000
  53.6600000  49.2200000  32.5100000  52.9700000  48.2000000  32.2000000
  53.1500000  50.4600000  32.2700000  53.6600000  51.2700000  32.5900000
  51.8500000  50.6700000  31.6600000  50.9900000  50.2700000  32.1900000
  51.5600000  52.1800000  31.5700000  51.5200000  52.6900000  32.5400000
  52.3500000  52.6600000  30.9900000  50.2100000  52.5600000  30.8900000
  50.1800000  52.1800000  29.8700000  49.0800000  52.0800000  31.7600000
  49.1900000  52.4300000  32.7900000  48.1500000  52.5100000  31.4000000
  49.0800000  51.0000000  31.8500000  50.0800000  54.0700000  30.7500000
  50.9800000  54.5600000  30.3700000  49.2400000  54.3300000  30.1100000
  49.7600000  54.4500000  31.7200000  51.8300000  50.0600000  30.2100000
  50.7700000  49.6200000  29.8200000  52.9400000  50.0200000  29.4600000
  53.7400000  50.4200000  29.9200000  52.9500000  49.5200000  28.0800000
  52.1800000  49.8200000  27.3700000  54.2800000  49.8600000  27.4200000
  55.0900000  49.4200000  28.0000000  54.2800000  49.4400000  26.4100000
  54.3300000  51.3900000  27.4500000  53.4500000  52.0700000  27.0000000
  55.4800000  51.9000000  27.9300000  55.6600000  52.8900000  27.9700000
  56.0800000  51.1900000  28.3400000  52.7900000  47.9800000  28.1700000
  52.0100000  47.5300000  27.3900000  53.2900000  47.2900000  29.2200000
  53.8400000  47.8100000  29.8900000  53.1000000  45.8400000  29.4200000
  53.3900000  45.3700000  28.4800000  54.0400000  45.2200000  30.4900000
  53.9100000  45.7800000  31.4100000  54.0400000  44.1400000  30.5800000
  55.0600000  45.3400000  30.1100000  51.6400000  45.5100000  29.7500000
  51.0700000  44.6800000  29.0700000  50.9600000  46.3900000  30.5900000
  51.5300000  47.0800000  31.0500000  49.5400000  46.3800000  30.8700000
  49.2400000  45.4200000  31.3000000  49.3500000  47.4400000  31.9000000
  49.6800000  48.4500000  31.6700000  48.2900000  47.5800000  32.0500000
  49.8100000  47.1400000  32.8400000  48.7000000  46.6500000  29.6300000
  47.6800000  45.9400000  29.5400000  49.2500000  47.4800000  28.7100000
  50.0000000  48.1200000  28.9200000  48.5100000  47.7000000  27.4800000
  47.4600000  47.5700000  27.7400000  48.8800000  49.0800000  26.8600000
  49.9700000  49.0800000  26.9100000  48.5700000  49.1100000  25.8100000
  48.4300000  50.2800000  27.6600000  47.3800000  50.1700000  27.9200000
  49.0300000  50.2600000  28.5700000  48.5100000  51.6300000  26.9100000
  49.4900000  51.6200000  26.4300000  47.7800000  51.6000000  26.1100000
  48.1800000  52.8700000  27.7700000  47.5800000  52.4800000  28.5900000
  49.0700000  53.4000000  28.1000000  47.3700000  53.8400000  27.0100000
  47.7800000  54.0500000  26.1000000  46.4000000  53.5700000  26.9300000
  47.3600000  54.6700000  27.5800000  48.7700000  46.5300000  26.5100000
  47.9000000  46.2900000  25.6700000  49.8000000  45.7200000  26.6300000
  50.4200000  45.7300000  27.4300000  50.0900000  44.6100000  25.6400000
  49.6900000  44.8700000  24.6600000  51.5900000  44.3200000  25.6900000
  52.0900000  45.2500000  25.4200000  51.7500000  44.0100000  26.7300000
  52.0300000  43.2800000  24.7100000  51.8600000  42.4200000  25.0900000
  49.2600000  43.4400000  26.1500000  48.6400000  42.7100000  25.3700000
  49.2200000  43.1100000  27.4700000  49.6100000  43.8400000  28.0400000
  48.2300000  42.1200000  27.9800000  48.4500000  41.2500000  27.3600000
  48.5700000  41.7500000  29.5200000  48.5300000  42.6500000  30.1300000
  47.8700000  41.0100000  29.9300000  50.0000000  41.2300000  29.8000000
  50.6500000  42.0800000  29.5600000  50.1500000  40.9300000  30.8400000
  50.5000000  40.0600000  28.9800000  49.9400000  38.9600000  29.0700000
  51.5100000  40.2700000  28.2600000  46.7400000  42.4000000  27.7900000
  46.0100000  41.4100000  27.7500000  46.2900000  43.7000000  27.6200000
  46.8500000  44.5300000  27.7800000  44.9400000  44.0500000  27.3200000
  44.1700000  43.5300000  27.9000000  44.6000000  45.5500000  27.5400000
  44.9500000  45.7500000  28.5500000  45.2500000  46.2200000  26.9800000
  43.1900000  46.0800000  27.3900000  42.8100000  45.9800000  26.3700000
  42.2500000  45.3100000  28.2800000  42.4700000  45.6300000  29.3000000
  41.2800000  45.6600000  27.9200000  42.3000000  44.2300000  28.1900000
  43.1800000  47.5600000  27.6900000  43.9800000  48.1000000  27.1900000
  42.2400000  48.0300000  27.4200000  43.4100000  47.6800000  28.7500000
  44.5700000  43.6600000  25.8900000  43.6000000  42.9600000  25.5500000
  45.4000000  44.1400000  24.9900000  46.1300000  44.7600000  25.3000000
  45.3200000  43.9300000  23.5600000  44.3800000  44.3500000  23.1900000
  46.5500000  44.4900000  22.8700000  47.4800000  44.0600000  23.2700000
  46.5000000  44.1200000  21.8500000  46.5800000  46.0100000  22.7400000
  45.6500000  46.6700000  23.2100000  47.4900000  46.6000000  22.1600000
  45.3800000  42.4600000  23.2600000  44.7300000  41.9700000  22.3500000
  46.1400000  41.6500000  23.9100000  46.8700000  42.1100000  24.4200000
  46.1200000  40.1900000  23.9200000  46.0100000  39.8600000  22.8900000
  47.3900000  39.6500000  24.5200000  48.2800000  39.9900000  23.9800000
  47.5200000  39.9800000  25.5500000  47.3100000  38.0800000  24.5300000
  46.6800000  37.8000000  25.3700000  46.8300000  37.7400000  23.6200000
  48.7000000  37.4100000  24.7000000  48.6600000  36.3200000  24.7500000
  49.2600000  37.7500000  23.8300000  49.3900000  37.9500000  25.9600000
  50.3500000  37.4300000  25.8700000  49.5600000  39.0200000  25.8500000
  48.6900000  37.4800000  27.2500000  48.6100000  36.4800000  27.4200000
  49.2400000  37.7900000  28.0400000  47.7500000  37.7300000  27.5200000
  44.8000000  39.7400000  24.5300000  44.3100000  38.7800000  23.9600000
  44.3100000  40.3600000  25.6300000  44.9000000  41.0200000  26.1100000
  43.0800000  39.8100000  26.2200000  43.2700000  38.7500000  26.4200000
  42.7700000  40.4400000  27.6100000  42.4800000  41.4700000  27.4000000
  41.9100000  39.9200000  28.0200000  43.6400000  40.4200000  28.2700000
  41.9000000  39.9500000  25.2500000  41.1100000  39.0500000  25.1200000
  41.7300000  41.1400000  24.6900000  42.4600000  41.8200000  24.8300000
  40.5200000  41.3900000  23.9400000  39.7200000  40.7800000  24.3700000
  40.2600000  42.9100000  24.0400000  41.1700000  43.3600000  23.6500000
  39.1100000  43.4300000  23.1000000  38.1500000  43.2200000  23.5700000
  39.2200000  44.4900000  22.9100000  39.0600000  43.0100000  22.0900000
  40.0200000  43.4200000  25.4700000  41.0200000  43.3300000  25.8900000
  39.7500000  44.4700000  25.4300000  38.9800000  42.7600000  26.3400000
  39.3400000  41.7500000  26.5400000  38.6600000  43.3800000  27.1800000
  38.0700000  42.6600000  25.7400000  40.7200000  40.9500000  22.5200000
  39.7200000  40.5200000  21.8800000  41.9700000  41.0300000  21.9800000
  42.8100000  41.1600000  22.5300000  42.3100000  40.4900000  20.5800000
  43.1600000  39.8200000  20.7000000  41.5300000  39.8900000  20.1000000
  42.3800000  41.6500000  19.5500000  42.3300000  41.3800000  18.4000000
  42.5400000  42.9200000  19.9100000  42.5400000  43.1300000  20.9000000
  42.7700000  44.1000000  19.0700000  43.3500000  43.8400000  18.1800000
  41.4400000  44.7200000  18.7500000  41.6100000  45.5100000  18.0200000
  40.8100000  44.0200000  18.1900000  40.6800000  45.3400000  19.9900000
  40.7200000  44.6800000  20.8500000  41.1800000  46.2300000  20.3800000
  39.2800000  45.7700000  19.7000000  39.3300000  46.6100000  19.0100000
  38.8200000  44.8600000  19.3300000  38.6700000  46.2500000  20.9600000
  37.9400000  45.8200000  21.5000000  38.9000000  47.3500000  21.6000000
  39.5800000  48.3300000  21.0300000  40.0000000  48.2800000  20.1100000
  39.7400000  49.1200000  21.6400000  38.4300000  47.7100000  22.7700000
  37.8700000  47.1000000  23.3500000  38.7600000  48.5500000  23.2200000
  43.6400000  45.1200000  19.8500000  43.5800000  45.1200000  21.0700000
  44.2700000  46.0500000  19.1500000  44.4000000  45.8700000  18.1600000
  44.7800000  47.3200000  19.7400000  45.6000000  47.0800000  20.4300000
  45.4000000  48.1200000  18.6000000  44.6500000  48.4400000  17.8900000
  45.8300000  49.0300000  19.0200000  46.5200000  47.4400000  17.8100000
  46.8300000  46.2400000  17.9100000  46.9400000  48.2400000  16.8100000
  47.5800000  47.9100000  16.1000000  46.6700000  49.2100000  16.9400000
  43.6500000  48.1400000  20.4900000  42.8100000  48.7400000  19.8500000
  43.6900000  48.1300000  21.8200000  44.3900000  47.5600000  22.2700000
  42.6900000  48.8400000  22.6400000  41.7500000  48.9000000  22.1000000
  42.3000000  47.9600000  23.8000000  43.1900000  47.8500000  24.4200000
  41.5000000  48.4600000  24.3500000  41.6400000  46.2500000  23.3700000
  42.5200000  46.1000000  22.3900000  43.1300000  50.2400000  23.1500000
  42.3700000  50.9300000  23.8200000  44.4500000  50.5400000  22.9900000
  44.9900000  49.8600000  22.4800000  45.2000000  51.6300000  23.6600000
  46.2200000  51.2700000  23.6600000  45.2900000  52.8800000  22.7600000
  44.3500000  53.4400000  22.6700000  46.0500000  53.5400000  23.1700000
  45.6800000  52.6500000  21.2700000  44.9500000  53.0400000  20.3200000
  46.9000000  52.3000000  20.9900000  47.1200000  52.2400000  20.0000000
  47.4800000  52.0800000  21.7800000  44.9100000  51.8100000  25.1300000
  45.1600000  52.9800000  25.5700000  44.5600000  50.8200000  25.9500000
  44.5400000  49.8700000  25.6000000  44.2500000  51.0400000  27.3800000
  44.4700000  50.1200000  27.9300000  44.9300000  51.7500000  27.8300000
  42.8000000  51.4200000  27.7000000  42.6000000  51.7800000  28.8300000
  41.8000000  51.2600000  26.7800000  42.0500000  50.8700000  25.8800000
  40.3100000  51.3900000  27.0600000  40.1400000  51.2300000  28.1300000
  39.7500000  52.8000000  26.8500000  39.5900000  52.8800000  25.7800000
  38.3900000  52.9700000  27.5100000  38.3700000  52.9800000  28.6000000
  37.9900000  53.9200000  27.1500000  37.6600000  52.2300000  27.1600000
  40.7500000  53.8500000  27.3300000  41.5800000  53.7700000  26.6300000
  40.2100000  54.8000000  27.3700000  41.1300000  53.6200000  28.3200000
  39.5100000  50.3100000  26.3500000  39.8000000  49.9800000  25.2200000
  38.5000000  49.7800000  26.9500000  38.1600000  50.2000000  27.8000000
  37.6000000  48.7400000  26.4400000  37.6900000  48.5400000  25.3700000
  37.7800000  47.4500000  27.2500000  36.9800000  46.7800000  26.9400000
  39.1200000  46.7800000  26.8100000  39.8700000  47.3600000  27.3500000
  39.1600000  45.7700000  27.2000000  39.2300000  46.7000000  25.7300000
  37.6300000  47.6100000  28.7500000  38.4600000  48.2600000  29.0700000
  36.7200000  48.0900000  29.1200000  37.7500000  46.2500000  29.4500000
  38.7800000  45.9200000  29.5300000  37.4100000  46.4500000  30.4700000
  37.1900000  45.4900000  28.9000000  36.1000000  49.2200000  26.5800000
  35.7800000  50.0300000  27.4300000  35.1600000  48.6200000  25.8600000
  35.4600000  47.9000000  25.2100000  33.7200000  48.7500000  26.1400000
  33.6100000  49.8000000  26.4000000  32.7900000  48.4400000  24.9700000
  31.7700000  48.6800000  25.2900000  33.0900000  49.3000000  23.7000000
  34.1200000  49.1900000  23.3500000  32.4700000  48.8700000  22.9200000
  32.7800000  50.3400000  23.8100000  32.8200000  47.0600000  24.6700000
  32.5100000  47.0400000  23.7700000  33.3400000  47.9700000  27.3400000
  33.9000000  46.9600000  27.7800000  32.1700000  48.3500000  27.8900000
  31.7400000  49.1900000  27.5400000  31.4200000  47.4700000  28.8500000
  32.0100000  47.4200000  29.7700000  30.0600000  48.1300000  29.0800000
  30.1500000  49.2000000  29.2700000  29.5100000  48.1200000  28.1400000
  29.1800000  47.4100000  30.1300000  28.8100000  46.4500000  29.7800000
  29.7900000  47.2800000  31.0300000  27.8800000  48.3000000  30.4800000
  28.1200000  49.3200000  30.7800000  27.3300000  48.5000000  29.5600000
  27.0400000  47.5900000  31.5200000  26.9600000  46.5600000  31.1700000
  27.4700000  47.6800000  32.5200000  25.6200000  48.1000000  31.5600000
  25.0500000  47.3500000  31.9300000  25.5500000  48.9400000  32.1100000
  25.3100000  48.2300000  30.6000000  31.2300000  46.0800000  28.3600000
  31.6300000  45.1500000  29.1100000  30.7300000  45.9100000  27.1200000
  30.3900000  46.7200000  26.6300000  30.6000000  44.5400000  26.6900000
  29.8200000  44.1300000  27.3300000  30.1000000  44.4500000  25.2500000
  30.9200000  44.6900000  24.5700000  29.8500000  43.4000000  25.0700000
  28.8500000  45.2700000  24.8200000  28.3900000  46.0500000  25.6700000
  28.2200000  45.0800000  23.7600000  31.8400000  43.6900000  26.7200000
  31.8000000  42.4500000  26.9000000  32.9900000  44.2800000  26.4600000
  32.9600000  45.2800000  26.3400000  34.3400000  43.6200000  26.5000000
  34.2600000  42.6500000  26.0200000  35.3700000  44.5000000  25.8500000
  35.3800000  45.5200000  26.2500000  36.3200000  44.0300000  26.1100000
  35.1000000  44.5500000  24.3400000  35.4100000  43.6000000  23.9000000
  34.0600000  44.7400000  24.0800000  36.0500000  45.6000000  23.6200000
  36.5600000  46.5600000  24.3000000  36.2100000  45.4200000  22.4000000
  34.7300000  43.2900000  27.9700000  35.1000000  42.1800000  28.2300000
  34.4400000  44.2300000  28.9400000  34.0200000  45.0700000  28.5800000
  34.5200000  44.1000000  30.3900000  35.5500000  43.8000000  30.5900000
  34.0800000  45.4000000  31.0900000  33.0800000  45.6300000  30.7200000
  34.0000000  45.1500000  32.1500000  34.7700000  46.2200000  30.9400000
  33.6800000  42.9500000  30.9200000  34.0900000  42.0900000  31.6900000
  32.5100000  42.7800000  30.4000000  32.1600000  43.4100000  29.6900000
  31.5800000  41.7700000  30.8300000  31.6400000  41.7300000  31.9200000
  30.1100000  42.0900000  30.5200000  29.9900000  42.3100000  29.4600000
  29.6200000  41.1200000  30.5800000  29.5400000  43.2400000  31.3900000
  29.8600000  43.0700000  32.4100000  30.0200000  44.1900000  31.1700000
  27.9800000  43.3600000  31.2500000  27.3400000  42.8100000  30.3200000
  27.4400000  43.9900000  32.1400000  31.9900000  40.3900000  30.3300000
  31.6600000  39.3400000  30.9200000  32.6200000  40.2600000  29.1300000
  32.7800000  41.1400000  28.6700000  33.0400000  38.9200000  28.6100000
  32.3800000  38.0900000  28.8500000  33.3900000  38.9100000  27.1100000
  32.5300000  39.2500000  26.5200000  34.2500000  39.5600000  26.9800000
  33.8000000  37.5300000  26.5900000  34.7500000  37.2600000  27.0600000
  33.0500000  36.8000000  26.9100000  34.1000000  37.4200000  25.0600000
  33.1100000  37.2100000  24.6600000  34.4800000  38.3500000  24.6300000
  35.1100000  36.3000000  24.8900000  36.1000000  36.5700000  25.2500000
  34.7800000  35.4000000  25.4200000  35.1800000  36.0200000  23.4600000
  35.3500000  36.8200000  22.8700000  35.8200000  35.2900000  23.1600000
  34.3100000  35.6700000  23.0900000  34.3200000  38.5600000  29.4600000
  34.4800000  37.4500000  29.9100000  35.1900000  39.5500000  29.8100000
  35.0000000  40.4900000  29.4800000  36.2900000  39.3800000  30.7500000
  36.9000000  38.5800000  30.3500000  37.1900000  40.6300000  31.0500000
  36.5300000  41.4400000  31.3400000  37.8300000  40.5600000  31.9300000
  38.0600000  41.0400000  29.8500000  37.4500000  41.2300000  28.9700000
  38.9300000  42.2500000  30.1200000  39.7200000  41.9500000  30.8000000
  39.5200000  42.3900000  29.2100000  38.3800000  43.1000000  30.5200000
  38.9700000  39.9100000  29.3000000  38.3700000  39.2000000  28.7300000
  39.7700000  40.2600000  28.6500000  39.4200000  39.3900000  30.1400000
  35.8300000  38.9000000  32.1100000  36.4500000  37.9500000  32.6100000
  34.6900000  39.3800000  32.6000000  34.4000000  40.2400000  32.1600000
  34.0900000  38.9100000  33.7800000  34.8800000  38.8800000  34.5300000
  33.0700000  39.9900000  34.1800000  33.5000000  40.9900000  34.1300000
  32.2400000  39.9500000  33.4700000  32.5100000  39.8400000  35.6300000
  33.4800000  39.7100000  36.7200000  34.5300000  39.6900000  36.4600000
  32.9700000  39.7000000  38.0200000  33.6100000  39.5800000  38.8900000
  31.6400000  40.0600000  38.2100000  31.2200000  40.2000000  39.2000000
  30.7800000  40.2900000  37.1300000  29.7300000  40.3200000  37.3500000
  31.2100000  40.1500000  35.8100000  30.5000000  40.1900000  34.9900000
  33.5200000  37.4400000  33.7200000  33.9000000  36.6400000  34.6000000
  32.7700000  37.2100000  32.6500000  32.5100000  38.0000000  32.0700000
  32.2700000  35.8600000  32.4200000  31.8400000  35.4400000  33.3300000
  31.2700000  35.8300000  31.2500000  30.6400000  36.7200000  31.2700000
  31.8500000  35.9200000  30.3300000  30.3100000  34.6700000  31.1700000
  30.0200000  33.9800000  32.1200000  29.6400000  34.4800000  30.0200000
  28.9300000  33.7700000  29.9300000  29.7600000  35.1100000  29.2400000
  33.4100000  34.8300000  32.2400000  33.2500000  33.7200000  32.7800000
  34.5300000  35.1300000  31.5400000  34.5900000  36.0700000  31.1700000
  35.6800000  34.1900000  31.4900000  35.4200000  33.2800000  30.9500000
  36.8000000  34.8000000  30.6500000  37.0100000  35.7900000  31.0700000
  37.7000000  34.2000000  30.8000000  36.3900000  34.6900000  29.1900000
  36.3300000  33.6500000  28.8800000  35.4000000  35.1100000  29.0500000
  37.3300000  35.4500000  28.1900000  37.3500000  35.1800000  27.0100000
  38.2800000  36.2500000  28.6400000  38.9700000  36.6200000  28.0000000
  38.5500000  36.2300000  29.6200000  36.2400000  33.9200000  32.9300000
  36.3800000  32.8100000  33.3100000  36.4100000  34.9600000  33.7000000
  36.1000000  35.8600000  33.3600000  37.1500000  34.9000000  34.9100000
  37.8900000  34.1200000  34.7300000  37.7900000  36.2100000  35.4100000
  37.1100000  37.0300000  35.1700000  37.7900000  36.2400000  36.5000000
  39.2100000  36.6200000  34.9800000  39.8000000  35.9200000  34.0700000
  39.7200000  37.5400000  35.6200000  36.3700000  34.2300000  36.0300000
  36.9000000  33.6000000  36.9600000  35.0000000  34.3100000  35.9400000
  34.5400000  34.8900000  35.2500000  34.2000000  33.7100000  37.0700000
  34.6900000  33.7700000  38.0400000  32.8100000  34.3600000  37.1600000
  32.3700000  34.4100000  36.1700000  31.6900000  33.5600000  37.9400000
  31.8100000  33.5800000  39.0200000  30.7000000  34.0000000  37.8300000
  31.6500000  32.5600000  37.5000000  32.9200000  35.7600000  37.6400000
  33.7800000  36.3400000  37.2800000  32.0300000  36.2900000  37.3200000
  32.9500000  35.7400000  38.7300000  34.1000000  32.2100000  36.7400000
  34.1100000  31.3900000  37.6600000  34.0800000  31.8600000  35.4800000
  34.2400000  32.5900000  34.8000000  34.0600000  30.4600000  34.9600000
  33.3700000  29.7700000  35.4500000  33.7700000  30.5500000  33.4600000
  32.9000000  31.2000000  33.3300000  34.5900000  31.0800000  32.9600000
  33.5000000  29.2000000  32.7800000  32.4000000  29.0600000  32.1600000
  34.2500000  28.2700000  33.0500000  35.4200000  29.8200000  35.3800000
  35.4700000  28.7600000  35.9900000  36.5500000  30.4500000  35.0200000
  36.2900000  31.2700000  34.5000000  37.9800000  30.1300000  35.3500000
  38.2400000  29.1800000  34.8900000  38.7400000  31.3500000  34.7400000
  38.3700000  32.2700000  35.2000000  39.8000000  31.2300000  34.9200000
  38.6500000  31.4200000  33.6600000  38.2500000  29.9900000  36.7900000
  39.0200000  29.1000000  37.0700000  37.7000000  30.8400000  37.6600000
  37.2100000  31.6200000  37.2600000  37.8300000  30.7600000  39.1100000
  38.9000000  30.6900000  39.3000000  37.2700000  31.9800000  39.8800000
  36.2200000  32.1500000  39.6400000  37.2800000  31.6800000  40.9300000
  37.9900000  32.7900000  39.7800000  37.2000000  29.5200000  39.6500000
  37.6500000  28.7700000  40.5000000  36.0600000  29.1300000  38.9700000
  35.8900000  29.5200000  38.0600000  35.2900000  27.9200000  39.2800000
  35.2300000  27.7900000  40.3600000  33.8400000  27.9100000  38.8000000
  33.7200000  28.0800000  37.7300000  33.0400000  26.6500000  39.0000000
  32.9200000  26.4900000  40.0800000  32.0700000  26.7500000  38.5100000
  33.5000000  25.7700000  38.5700000  33.0500000  29.0600000  39.4600000
  32.7600000  28.8000000  40.4800000  33.6500000  29.9500000  39.6600000
  32.1600000  29.3300000  38.9000000  36.0400000  26.6900000  38.7300000
  36.2900000  25.8100000  39.5600000  36.4800000  26.6000000  37.4600000
  36.2800000  27.3700000  36.8400000  37.2800000  25.4500000  36.9600000
  36.7600000  24.5000000  37.1000000  37.6700000  25.5700000  35.4900000
  38.3400000  26.4100000  35.3000000  38.2600000  24.6700000  35.3500000
  36.5300000  25.5600000  34.4500000  36.0300000  26.5300000  34.4500000
  36.9600000  25.2500000  33.5000000  35.4300000  24.5400000  34.8500000
  35.0100000  24.6300000  35.8600000  34.5400000  24.7000000  34.2400000
  35.7600000  23.0700000  34.6400000  36.1800000  22.5600000  35.4000000
  35.3900000  22.3600000  33.6100000  34.9200000  22.9800000  32.5400000
  34.9100000  23.9800000  32.4400000  34.7500000  22.4700000  31.6900000
  35.6200000  21.0500000  33.5700000  35.9400000  20.6600000  34.4400000
  35.1700000  20.5400000  32.8200000  38.5500000  25.3100000  37.8100000
  38.8400000  24.1000000  38.1500000  39.1400000  26.4000000  38.2800000
  38.7500000  27.2800000  37.9600000  40.4200000  26.3100000  38.9800000
  41.1300000  25.7700000  38.3600000  40.7800000  27.3300000  39.1200000
  40.1900000  25.7200000  40.3800000  40.9700000  24.8700000  40.8600000
  39.1800000  26.1000000  41.1400000  38.5900000  26.8200000  40.7600000
  38.7200000  25.4100000  42.3200000  39.5300000  25.4600000  43.0400000
  37.4700000  26.1800000  42.9300000  36.7900000  26.4700000  42.1200000
  36.7200000  25.3400000  43.9400000  37.4000000  24.8800000  44.6700000
  35.8600000  25.8700000  44.3500000  36.2600000  24.5300000  43.3700000
  37.8500000  27.4100000  43.7100000  38.1300000  27.0300000  44.6900000
  38.7400000  27.9000000  43.3100000  36.7200000  28.4800000  43.9300000
  35.9900000  28.0400000  44.6100000  36.9900000  29.4100000  44.4200000
  36.1700000  28.7300000  43.0300000  38.3900000  23.9200000  42.0100000
  38.8700000  23.1000000  42.7800000  37.6900000  23.6100000  40.9000000
  37.3100000  24.3400000  40.3200000  37.3100000  22.2200000  40.6400000
  36.9800000  21.9000000  41.6300000  36.2200000  22.1300000  39.5200000
  36.6100000  22.4200000  38.5400000  35.9400000  21.0900000  39.3700000
  34.9300000  22.8300000  39.9500000  35.1900000  23.8100000  40.3400000
  34.0600000  23.1000000  38.8100000  33.7400000  22.2000000  38.3000000
  33.1100000  23.5800000  39.0800000  34.4800000  23.4700000  37.8800000
  34.1800000  22.0900000  41.0900000  34.6700000  22.1300000  42.0600000
  33.1700000  22.4500000  41.2700000  34.0800000  21.0500000  40.7800000
  38.4500000  21.2800000  40.2300000  38.2100000  20.1200000  40.3400000
  39.6000000  21.7500000  39.8100000  39.6800000  22.7400000  39.6500000
  40.9000000  21.0300000  39.5300000  40.5900000  20.0100000  39.3100000
  41.6200000  21.6200000  38.3600000  41.5600000  22.7000000  38.4900000
  42.6900000  21.4300000  38.4600000  41.0000000  21.3400000  36.9600000
  40.7800000  20.2800000  36.9300000  40.0200000  21.7900000  37.0900000
  41.8100000  21.8700000  35.8000000  42.8500000  21.8900000  36.1200000
  41.7300000  21.1300000  35.0100000  41.3200000  23.1400000  35.3800000
  41.8200000  23.9500000  35.7200000  40.7100000  23.3600000  34.2200000
  40.0300000  22.4700000  33.6400000  39.9600000  21.5600000  34.0800000
  39.5300000  22.6900000  32.7900000  40.6500000  24.6200000  33.7600000
  41.2800000  25.2600000  34.2200000  40.4000000  24.8100000  32.7900000
  41.7400000  20.9700000  40.8300000  42.6700000  20.1200000  40.9400000
  41.3900000  21.7900000  41.9000000  40.5900000  22.4000000  41.8600000
  42.3100000  21.9500000  43.0400000  43.3100000  21.6500000  42.7100000
  42.4200000  23.4700000  43.5100000  42.8700000  24.0000000  42.6700000
  41.5000000  23.9500000  43.8500000  43.3900000  23.6000000  44.6800000
  43.2500000  22.9100000  45.7100000  44.4800000  24.3500000  44.5100000
  44.9300000  24.5700000  45.3800000  44.5000000  24.9000000  43.6600000
  42.0000000  21.0000000  44.1700000  40.8900000  20.9900000  44.6200000
  43.0000000  20.1600000  44.5600000  43.8500000  20.0800000  44.0100000
  42.7400000  19.0900000  45.4700000  41.8800000  18.5400000  45.0700000
  43.9100000  18.0500000  45.4000000  44.7700000  18.5500000  45.8500000
  43.7100000  17.1500000  45.9800000  44.0700000  17.8200000  44.3400000
  42.3800000  19.4800000  46.8800000  41.7200000  18.7400000  47.5600000
  42.7500000  20.7000000  47.3300000  43.2300000  21.2400000  46.6300000
  42.3700000  21.2600000  48.6800000  42.2400000  20.5700000  49.5100000
  43.4100000  22.3000000  49.1800000  43.4900000  23.1900000  48.5600000
  42.9800000  22.6500000  50.1200000  44.8200000  21.7700000  49.2900000
  45.1400000  21.6500000  48.2500000  45.4400000  22.5400000  49.7400000
  44.8700000  20.4500000  50.1400000  44.2500000  20.6600000  51.0100000
  44.4200000  19.6200000  49.6000000  46.3600000  20.0800000  50.5200000
  46.8900000  19.8100000  49.6100000  46.7800000  20.9000000  51.1000000
  46.6200000  18.9200000  51.4200000  46.5100000  19.1200000  52.4000000
  46.1500000  18.1000000  51.0700000  47.5900000  18.6400000  51.4200000
  41.0000000  22.0000000  48.6400000  40.1700000  21.7700000  49.5100000
  40.6800000  22.6900000  47.5000000  41.4000000  22.6900000  46.8000000
  39.5000000  23.5400000  47.3500000  39.2500000  23.9200000  48.3400000
  39.7200000  24.8000000  46.4200000  39.9500000  24.3600000  45.4500000
  38.9100000  25.5100000  46.2600000  41.0900000  25.4800000  46.7800000
  41.8900000  24.7800000  46.5600000  41.3500000  26.6700000  45.8800000
  40.7300000  27.4900000  46.2400000  42.4200000  26.8800000  45.8600000
  41.2100000  26.3200000  44.8500000  41.2500000  25.9100000  48.2700000
  41.3000000  25.0000000  48.8700000  42.2500000  26.2800000  48.5200000
  40.5300000  26.6500000  48.6100000  38.2600000  22.6700000  46.9600000
  37.2100000  22.7700000  47.5100000  38.4100000  21.7600000  45.9800000
  39.3000000  21.6800000  45.5100000  37.2800000  20.8700000  45.5500000
  36.5200000  21.5300000  45.1100000  37.7300000  19.9300000  44.4200000
  38.3200000  20.5000000  43.7000000  38.3400000  19.1400000  44.8400000
  36.4900000  19.3300000  43.6900000  35.7800000  19.0000000  44.4500000
  35.9800000  20.1300000  43.1600000  36.8400000  18.1000000  42.7800000
  37.7000000  18.4300000  42.1900000  37.2500000  17.3100000  43.4100000
  35.7400000  17.7700000  41.7800000  35.4300000  18.6900000  41.2800000
  36.2700000  17.0200000  41.1900000  34.6400000  17.1500000  42.4300000
  34.0400000  17.7200000  43.0100000  33.9300000  16.8300000  41.7900000
  35.0400000  16.4300000  43.0200000  36.5400000  20.1000000  46.7400000
  35.3200000  20.2000000  46.8000000  37.1800000  19.4400000  47.7400000
  38.5500000  19.0000000  47.7600000  39.2100000  19.8700000  47.8000000
  38.8900000  18.5100000  46.8500000  38.7700000  18.2300000  49.0800000
  39.2200000  18.9200000  49.8000000  39.5600000  17.5000000  48.9200000
  37.3800000  17.8400000  49.6300000  37.3500000  18.0700000  50.7000000
  37.2000000  16.8000000  49.3900000  36.4500000  18.7800000  48.7600000
  35.6900000  18.1700000  48.2800000  35.6900000  19.7900000  49.6200000
  34.8100000  19.3800000  50.3800000  36.2300000  21.0500000  49.7100000
  36.9800000  21.4300000  49.1400000  35.4600000  22.0700000  50.5000000
  34.9300000  21.5800000  51.3000000  36.3400000  23.1700000  51.1200000
  36.7800000  23.7300000  50.3000000  35.6600000  24.1600000  52.0200000
  34.9900000  23.6600000  52.7200000  36.3800000  24.8300000  52.5000000
  35.0100000  24.7300000  51.3500000  37.5400000  22.5500000  51.9000000
  37.2000000  21.6900000  52.4700000  38.2200000  22.1300000  51.1500000
  38.0300000  23.2600000  52.5600000  34.3700000  22.7000000  49.7300000
  33.2800000  22.7600000  50.3000000  34.6400000  23.1300000  48.5000000
  35.5400000  22.9700000  48.0900000  33.6100000  23.7200000  47.6800000
  33.2100000  24.5900000  48.2100000  34.2300000  24.1800000  46.3800000
  35.0100000  24.9100000  46.5800000  34.6900000  23.3300000  45.8700000
  33.3400000  24.8300000  45.3900000  33.1800000  26.1800000  45.3300000
  33.6500000  26.8400000  46.0400000  32.5800000  26.7900000  44.2200000
  32.6100000  27.8500000  44.0400000  31.9700000  25.9800000  43.2300000
  31.3500000  26.6200000  42.2000000  30.8800000  25.9900000  41.6600000
  32.0400000  24.6000000  43.3200000  31.6700000  23.9500000  42.5400000
  32.8200000  24.0600000  44.3400000  32.8200000  22.9900000  44.2000000
  32.4400000  22.7700000  47.4800000  31.3100000  23.2200000  47.5300000
  32.7200000  21.5100000  47.1900000  33.6700000  21.2200000  46.9900000
  31.6000000  20.5200000  47.0000000  30.9100000  20.9300000  46.2600000
  32.1600000  19.1400000  46.5900000  32.7600000  18.6900000  47.3700000
  31.3200000  18.4400000  46.6000000  32.7800000  19.1000000  45.1700000
  32.5100000  20.0600000  44.3800000  33.4200000  18.1200000  44.7800000
  30.8000000  20.2800000  48.3400000  29.6200000  19.8700000  48.3100000
  31.3100000  20.5800000  49.5200000  32.2700000  20.8800000  49.5400000
  30.6400000  20.4500000  50.8100000  30.0200000  19.5500000  50.8400000
  31.7200000  20.3600000  51.8500000  31.4800000  19.8000000  52.7500000
  32.4500000  19.6900000  51.4000000  32.3100000  21.6400000  52.2900000
  32.7500000  22.0400000  51.5300000  29.7900000  21.6800000  51.0500000
  28.8700000  21.6100000  51.8500000  30.0200000  22.8600000  50.4100000
  30.5500000  22.8100000  49.5500000  29.3400000  24.1000000  50.7500000
  28.9600000  24.1200000  51.7800000  30.1200000  25.3400000  50.3100000
  30.4600000  25.2600000  49.2800000  29.5300000  26.2400000  50.4600000
  31.4200000  25.5400000  51.1700000  32.0600000  24.6700000  51.0100000
  32.1000000  26.8500000  50.8000000  31.4400000  27.7200000  50.7800000
  32.9100000  27.0100000  51.5000000  32.5800000  26.7400000  49.8300000
  31.0500000  25.6500000  52.6200000  31.7200000  26.3400000  53.1300000
  30.0200000  25.9600000  52.7900000  31.0700000  24.5900000  52.8800000
  27.9300000  24.1500000  50.0500000  27.6900000  23.5000000  49.0600000
  27.0700000  25.0700000  50.4700000  27.3100000  25.5000000  51.3500000
  25.8600000  25.4900000  49.7700000  25.5100000  24.6700000  49.1300000
  24.9600000  25.9900000  50.7900000  24.0300000  26.2800000  50.2900000
  24.7000000  25.0600000  51.2900000  25.5000000  27.2300000  51.5600000
  25.4200000  28.3500000  50.9800000  25.9100000  27.0100000  52.7000000
  26.0600000  26.6000000  48.7700000  27.1100000  27.1500000  48.7300000
  25.2100000  26.8300000  47.7800000  24.3500000  26.3000000  47.7500000
  25.5900000  27.6000000  46.6400000  26.5100000  27.1600000  46.2400000
  24.5100000  27.4800000  45.5700000  23.6400000  28.0400000  45.9200000
  24.8200000  27.8400000  44.5900000  24.3100000  26.4100000  45.5100000
  25.9000000  29.0700000  46.9300000  26.6000000  29.7700000  46.1500000
  25.3900000  29.6100000  48.0200000  24.8100000  29.0700000  48.6400000
  25.7200000  30.9900000  48.5400000  25.6200000  31.6800000  47.7000000
  24.6800000  31.5000000  49.6500000  24.6200000  30.9100000  50.5600000
  24.7800000  32.9900000  49.9900000  25.0800000  33.5300000  49.1000000
  23.8700000  33.3800000  50.4400000  25.5000000  33.1100000  50.8100000
  23.2900000  31.3600000  49.0900000  23.0500000  30.3500000  48.7600000
  22.6300000  31.6400000  49.9200000  23.1000000  32.0300000  48.2600000
  27.1200000  31.0600000  49.1000000  28.0200000  31.8400000  48.7200000
  27.4800000  30.1100000  49.9100000  26.7800000  29.3900000  50.0200000
  28.8500000  29.9500000  50.5000000  29.1100000  30.9600000  50.8200000
  28.8300000  28.9500000  51.6600000  28.2800000  28.1100000  51.2400000
  29.9000000  28.8300000  51.8300000  28.1000000  29.4500000  52.8600000
  28.6100000  30.3500000  53.2200000  27.0400000  29.5800000  52.6500000
  28.3500000  28.4000000  53.9700000  27.8700000  27.4500000  53.7600000
  29.4000000  28.1900000  54.1700000  27.8900000  28.9200000  55.2700000
  28.4300000  29.6000000  55.7700000  26.6600000  28.6700000  55.7500000
  25.7500000  27.9200000  55.1400000  26.0200000  27.5800000  54.2300000
  24.8700000  27.7600000  55.6000000  26.3100000  29.3200000  56.8500000
  27.0000000  29.8100000  57.4000000  25.4700000  29.0000000  57.3000000
  29.8100000  29.5800000  49.3300000  30.9200000  30.0500000  49.2400000
  29.2800000  28.7900000  48.3600000  28.4200000  28.3100000  48.5700000
  30.0300000  28.5200000  47.1700000  30.9600000  28.0900000  47.5500000
  29.4600000  27.4200000  46.2200000  28.4700000  27.8400000  46.0300000
  29.9400000  27.5100000  45.2500000  29.5200000  25.9500000  46.8200000
  30.5200000  25.7500000  47.2000000  28.8900000  25.8300000  47.7000000
  29.2700000  24.7700000  45.8000000  30.1500000  24.6800000  45.1700000
  29.1800000  23.7800000  46.2400000  28.1000000  25.0500000  44.9700000
  28.2200000  25.5300000  44.0900000  26.9600000  24.5100000  45.1100000
  26.4600000  23.9600000  46.2000000  27.0600000  23.7200000  46.9700000
  25.4600000  23.7800000  46.2300000  26.0500000  24.7000000  44.2100000
  26.3300000  25.3400000  43.4900000  25.1100000  24.3300000  44.2200000
  30.3500000  29.8100000  46.4200000  31.5200000  29.9500000  46.0300000
  29.4500000  30.8400000  46.3900000  28.5400000  30.7600000  46.8100000
  29.7100000  32.2000000  45.9000000  30.2400000  32.1700000  44.9500000
  28.3900000  32.9400000  45.7300000  27.7800000  32.7200000  46.6100000
  28.6600000  33.9900000  45.6900000  27.5100000  32.3300000  44.2800000
  26.9500000  31.2500000  44.8500000  30.7100000  32.9800000  46.7700000
  31.5900000  33.6100000  46.2300000  30.7300000  32.9300000  48.0700000
  30.0200000  32.3900000  48.5400000  31.8400000  33.4200000  48.8900000
  31.9600000  34.4900000  48.7300000  31.3600000  33.1200000  50.3100000
  31.2300000  32.0500000  50.4700000  32.0600000  33.4200000  51.0900000
  30.3700000  33.5300000  50.4800000  33.1900000  32.7500000  48.5900000
  34.2400000  33.4000000  48.6700000  33.1000000  31.4500000  48.1800000
  32.2300000  30.9500000  48.2800000  34.2700000  30.6600000  47.8800000
  35.0300000  31.0000000  48.5800000  33.9800000  29.1500000  48.0000000
  34.8900000  28.5800000  47.7900000  33.6400000  28.8800000  49.0000000
  33.2500000  28.8700000  47.2400000  34.8900000  31.0700000  46.5000000
  36.1200000  31.2300000  46.4100000  34.0300000  31.3500000  45.4900000
  33.0700000  31.0400000  45.5700000  34.4500000  31.9200000  44.1900000
  35.2700000  31.3300000  43.7800000  33.3200000  32.0500000  43.0800000
  32.5200000  32.6400000  43.5400000  33.8600000  32.6400000  41.7500000
  34.9100000  32.3900000  41.6000000  33.2900000  32.4500000  40.8400000
  33.9600000  33.7100000  41.9500000  32.8800000  30.6000000  42.8400000
  33.5000000  30.0900000  42.1100000  33.0900000  30.0500000  43.7500000
  31.4600000  30.4600000  42.3600000  31.2700000  31.1600000  41.5500000
  31.3100000  29.5000000  41.8600000  30.7000000  30.6900000  43.1000000
  35.0100000  33.3200000  44.5200000  36.0600000  33.6400000  43.9900000
  34.3300000  34.1700000  45.2800000  33.4900000  33.9200000  45.7700000
  34.7300000  35.5900000  45.4000000  34.6900000  36.0100000  44.3900000
  33.6500000  36.3200000  46.2800000  32.6500000  36.0900000  45.9100000
  33.6900000  36.1000000  47.3400000  33.7500000  37.9000000  46.2400000
  34.8300000  38.4900000  46.1500000  32.6600000  38.6100000  46.2400000
  32.8500000  39.5900000  46.3700000  31.7400000  38.3300000  46.5500000
  36.1800000  35.6400000  45.9200000  37.0400000  36.2700000  45.3000000
  36.5100000  34.8600000  46.9800000  35.9200000  34.1300000  47.3500000
  37.8900000  34.8300000  47.5000000  38.1700000  35.8500000  47.7700000
  37.8000000  34.0600000  48.7700000  36.8500000  34.1900000  49.2900000
  38.0100000  33.0200000  48.5200000  39.0000000  34.5400000  49.6500000
  39.9500000  34.2300000  49.2100000  39.0100000  35.6200000  49.8000000
  39.0900000  33.7300000  50.9500000  38.3800000  32.7700000  51.1800000
  40.0200000  34.0000000  51.8400000  40.1000000  33.5100000  52.7200000
  40.7000000  34.7300000  51.6400000  38.8800000  34.4300000  46.5000000
  40.0100000  34.9300000  46.5000000  38.6200000  33.3700000  45.6800000
  37.6600000  33.0600000  45.7400000  39.5700000  32.9400000  44.6400000
  40.5400000  32.9100000  45.1400000  39.1700000  31.5000000  44.1300000
  38.0900000  31.3800000  44.0900000  39.8300000  31.2300000  42.7900000
  40.9100000  31.3000000  42.9400000  39.5900000  30.2300000  42.4300000
  39.4900000  31.9000000  42.0000000  39.6700000  30.5000000  45.1700000
  39.1500000  30.6000000  46.1300000  39.5700000  29.4800000  44.7800000
  40.7200000  30.7100000  45.3600000  39.7500000  34.0400000  43.5500000
  40.8800000  34.3400000  43.2000000  38.7100000  34.7400000  43.1300000
  37.7700000  34.5200000  43.4200000  38.7900000  35.9100000  42.2400000
  39.1500000  35.3700000  41.3600000  37.4100000  36.4600000  41.9500000
  36.8400000  35.5600000  41.7500000  37.0200000  37.0800000  42.7700000
  37.2800000  37.3000000  40.6500000  36.6900000  36.7600000  39.5000000
  36.2800000  35.7600000  39.4800000  36.4300000  37.5600000  38.3800000
  35.9400000  37.1300000  37.5200000  36.8000000  38.8900000  38.3700000
  36.6100000  39.5000000  37.5000000  37.4600000  39.4300000  39.5000000
  37.7500000  40.4700000  39.4700000  37.6000000  38.6600000  40.6800000
  38.0300000  39.1600000  41.5300000  39.8900000  36.9100000  42.7300000
  40.8800000  37.2500000  42.0700000  39.6200000  37.4600000  43.9000000
  38.7900000  37.0900000  44.3400000  40.4700000  38.4200000  44.6300000
  40.5200000  39.3200000  44.0100000  39.7500000  38.7800000  45.9300000
  38.6800000  38.8500000  45.7300000  39.7800000  37.9700000  46.6600000
  40.4100000  40.0200000  46.5100000  41.4700000  39.8600000  46.7100000
  40.3200000  40.8000000  45.7500000  39.7400000  40.5200000  47.7400000
  38.8700000  39.9600000  48.3600000  40.1400000  41.6600000  48.2000000
  40.0700000  41.7900000  49.2000000  40.7200000  42.2900000  47.6500000
  41.8300000  37.8700000  44.8900000  42.7900000  38.5100000  44.3700000
  42.0100000  36.8200000  45.6800000  41.2300000  36.2500000  45.9900000
  43.4000000  36.4600000  46.1600000  43.9800000  37.3800000  46.2800000
  43.3500000  35.7200000  47.5100000  42.7400000  34.8400000  47.3000000
  44.3600000  35.3900000  47.7200000  42.8200000  36.5500000  48.6400000
  43.4500000  37.4100000  48.8600000  41.7900000  36.9300000  48.6300000
  42.8300000  35.6600000  50.3100000  44.6300000  35.5200000  50.5200000
  44.9000000  34.9200000  51.3900000  45.0400000  35.1000000  49.6000000
  44.9900000  36.5500000  50.5900000  44.1600000  35.7500000  45.0800000
  45.3700000  35.8100000  45.1300000  43.4200000  34.9500000  44.3000000
  42.4200000  35.0000000  44.3300000  43.9400000  33.8700000  43.4400000
  43.2200000  33.7100000  42.6300000  44.8500000  34.1600000  42.9100000
  43.9600000  32.5400000  44.2100000  44.1200000  32.5500000  45.4500000
  43.7200000  31.4300000  43.4800000  43.5700000  31.5700000  42.4900000
  43.8200000  30.1100000  43.9800000  42.9600000  29.7500000  44.5400000
  43.9000000  29.1700000  42.7900000  43.0800000  29.3900000  42.1000000
  44.9000000  29.3000000  42.3900000  43.7100000  27.6900000  43.1000000
  44.0600000  27.4300000  44.1000000  42.6600000  27.3900000  43.1300000
  44.3300000  26.9000000  41.9100000  44.1300000  27.2000000  40.7500000
  44.9000000  25.7900000  42.1900000  45.0600000  29.7700000  44.8100000
  44.8800000  29.2000000  45.9200000  46.2400000  30.2400000  44.4400000
  46.1400000  30.8300000  43.6300000  47.4600000  30.0100000  45.1800000
  47.6200000  28.9500000  45.3800000  48.6900000  30.5000000  44.3900000
  48.7700000  31.5700000  44.5300000  50.0500000  29.8600000  44.8000000
  50.1900000  28.9300000  44.2500000  50.8000000  30.5500000  44.4200000
  50.1800000  29.6900000  45.8700000  48.4900000  30.2400000  43.0100000
  47.8900000  30.9000000  42.6700000  47.4900000  30.7000000  46.5700000
  48.0200000  30.2000000  47.5400000  46.8100000  31.8300000  46.7600000
  46.2200000  32.0600000  45.9700000  46.6500000  32.6000000  48.0100000
  47.6100000  32.7300000  48.4900000  46.3000000  33.6000000  47.7400000
  45.6100000  32.1100000  48.9800000  45.7600000  32.3500000  50.2100000
  44.5900000  31.3900000  48.5700000  44.3600000  31.3800000  47.5900000
  43.5800000  30.7700000  49.4200000  43.5100000  31.3000000  50.3700000
  42.1000000  30.8000000  48.9300000  41.4300000  30.7500000  49.7900000
  41.7300000  32.1900000  48.3900000  40.7400000  32.1700000  47.9300000
  41.7700000  32.9400000  49.1800000  42.4400000  32.4800000  47.6200000
  41.8200000  29.7800000  47.8000000  40.7600000  29.7700000  47.5500000
  42.3500000  30.0800000  46.9000000  41.9300000  28.7300000  48.0600000
  43.9500000  29.3600000  49.8100000  43.3900000  28.9700000  50.8400000
  44.7200000  28.5700000  48.9900000  45.1500000  28.8900000  48.1300000
  44.9600000  27.1700000  49.2300000  43.8900000  26.9400000  49.2700000
  45.6000000  26.6400000  47.9500000  46.4300000  27.2900000  47.6800000
  46.0100000  25.6400000  48.0100000  44.9100000  26.6700000  47.1000000
  45.8800000  26.8900000  50.4400000  45.8900000  25.8400000  50.9700000
  46.5000000  27.9400000  51.0300000  46.5400000  28.8100000  50.5100000
  47.2000000  27.9800000  52.3500000  47.6400000  27.0000000  52.5100000
  48.0300000  28.6900000  52.3100000  46.2700000  28.2600000  53.5600000
  46.8000000  28.1400000  54.7000000  44.9800000  28.6400000  53.4300000
  44.6900000  28.8700000  52.4900000  44.0700000  28.8900000  54.5500000
  44.5700000  29.3100000  55.4200000  42.9900000  29.8900000  54.1800000
  42.6000000  29.7400000  53.1700000  42.1600000  29.7600000  54.8800000
  43.4000000  31.3100000  54.1600000  44.6000000  31.7300000  53.4600000
  45.2500000  31.0400000  52.9400000  44.8400000  33.1300000  53.4700000
  45.6900000  33.5200000  52.9300000  43.8700000  34.0700000  53.8900000
  43.9800000  35.1300000  53.7500000  42.7200000  33.6600000  54.5600000
  42.0000000  34.3600000  54.9500000  42.5200000  32.2600000  54.7200000
  41.5400000  31.9400000  55.0600000  43.5700000  27.5700000  55.2200000
  42.4100000  27.4200000  55.6100000  44.5400000  26.6000000  55.4900000
  45.5100000  26.7600000  55.2500000  44.2600000  25.1900000  55.9100000
  43.7700000  24.6300000  55.1200000  45.6200000  24.4800000  56.1900000
  46.2000000  25.0700000  56.9100000  45.5100000  23.0600000  56.6700000
  44.8300000  22.4600000  56.0600000  46.4800000  22.5900000  56.8300000
  45.1200000  22.9300000  57.6700000  46.2600000  24.5200000  54.9200000
  47.0500000  23.9700000  54.9800000  43.3400000  25.0100000  57.1100000
  42.6400000  24.0300000  57.2300000  43.4500000  25.9400000  58.0700000
  44.0000000  26.7800000  57.9400000  42.5200000  25.9400000  59.2000000
  42.3800000  24.9100000  59.5400000  43.1900000  26.8000000  60.2600000
  43.5500000  27.6800000  59.7300000  42.4700000  27.1700000  60.9900000
  44.2900000  25.9900000  60.9300000  44.1300000  25.2800000  61.8600000
  45.4100000  26.2200000  60.3500000  46.3200000  26.0300000  60.7500000
  45.4100000  26.8300000  59.5400000  41.1900000  26.4500000  58.8100000
  40.1900000  25.7100000  58.9300000  41.0400000  27.6000000  58.1400000
  41.8400000  28.2100000  58.1100000  39.6900000  28.0100000  57.6200000
  39.0900000  28.2000000  58.5100000  39.6800000  29.3700000  56.9000000
  40.4800000  29.4400000  56.1700000  38.7000000  29.5700000  56.4600000
  39.9500000  30.4000000  57.8800000  40.8300000  30.2700000  58.2300000
  38.9700000  27.0300000  56.7000000  37.7900000  26.7900000  56.8600000
  39.7700000  26.3600000  55.8000000  40.7600000  26.5000000  55.6700000
  39.3200000  25.2500000  54.8500000  38.6500000  25.6500000  54.0900000
  40.5300000  24.8400000  54.0200000  41.4200000  24.8500000  54.6400000
  40.3800000  23.8300000  53.6300000  40.8500000  25.7800000  52.8500000
  40.7300000  26.8200000  53.1500000  42.2700000  25.5900000  52.2800000
  42.4100000  24.6000000  51.8400000  42.3600000  26.3300000  51.4900000
  42.9300000  25.9400000  53.0800000  39.8300000  25.5300000  51.7100000
  38.8100000  25.4300000  52.0800000  39.9800000  26.2200000  50.8800000
  40.0500000  24.5300000  51.3200000  38.6500000  24.1000000  55.6800000
  37.5800000  23.6700000  55.3600000  39.3100000  23.6200000  56.7400000
  39.9500000  24.2800000  57.1500000  38.7700000  22.6300000  57.6700000
  38.4600000  21.7500000  57.1000000  39.9000000  22.2100000  58.5900000
  40.7200000  21.8300000  57.9900000  40.2800000  23.0800000  59.1400000
  39.3800000  21.2000000  59.6200000  38.6200000  21.5300000  60.3200000
  38.9800000  20.3400000  59.0800000  40.4900000  20.8000000  60.5700000
  40.2500000  19.9100000  61.1500000  41.4200000  20.5500000  60.0400000
  40.7600000  21.7800000  61.6500000  39.9600000  22.0000000  62.2400000
  41.8700000  22.5000000  61.9100000  41.8400000  23.4300000  62.7800000
  41.0500000  23.5600000  63.4000000  42.6600000  24.0000000  62.9000000
  43.0400000  22.3500000  61.3100000  43.0800000  21.8200000  60.4500000
  43.7600000  23.0200000  61.5400000  37.4800000  23.0900000  58.4100000
  36.5300000  22.3300000  58.4400000  37.4400000  24.3600000  58.8800000
  38.1800000  25.0000000  58.6200000  36.3300000  24.8900000  59.6000000
  36.1100000  24.1500000  60.3800000  36.8900000  26.1700000  60.3500000
  37.4500000  26.8600000  59.7200000  36.0700000  26.7200000  60.8100000
  37.8400000  25.7700000  61.4400000  37.4600000  25.1500000  62.2500000
  38.6400000  25.3300000  60.8400000  38.4700000  27.2800000  62.2700000
  39.8800000  26.5500000  63.1900000  39.4900000  25.6700000  63.7100000
  40.7000000  26.3000000  62.5100000  40.2100000  27.2700000  63.9400000
  35.0800000  25.1100000  58.7600000  33.9900000  24.7300000  59.2100000
  35.2600000  25.5500000  57.4900000  36.2000000  25.6600000  57.1400000
  34.1500000  25.5300000  56.4700000  33.2900000  26.0400000  56.9100000
  34.5000000  26.3500000  55.2300000  35.3800000  25.8400000  54.8400000
  33.7500000  26.2700000  54.4500000  34.7500000  27.8000000  55.5400000
  35.5000000  27.9500000  56.3100000  35.5100000  28.4600000  54.2900000
  34.8900000  28.3800000  53.4000000  35.7900000  29.4900000  54.5300000
  36.4800000  28.0100000  54.1300000  33.5400000  28.6600000  55.8300000
  33.0300000  28.3200000  56.7300000  33.9400000  29.6600000  55.9600000
  32.8400000  28.5200000  55.0000000  33.6600000  24.1200000  56.1900000
  32.4600000  23.9300000  56.2300000  34.5100000  23.1600000  55.9300000
  35.5000000  23.3200000  55.9900000  34.0300000  21.8500000  55.5100000
  33.3300000  21.9500000  54.6800000  35.2400000  21.0900000  54.8500000
  35.4800000  21.6700000  53.9600000  36.0200000  21.0100000  55.6100000
  34.8600000  19.6700000  54.3100000  34.3000000  19.0500000  55.0100000
  34.2600000  19.8700000  53.4200000  36.1000000  18.7800000  53.8900000
  37.2500000  19.2000000  53.7700000  35.8600000  17.5100000  53.5900000
  36.6900000  17.0200000  53.2900000  35.1100000  16.9200000  53.9200000
  33.3300000  21.0600000  56.6200000  32.3600000  20.3900000  56.3600000
  33.7300000  21.2900000  57.8700000  34.4600000  21.9600000  58.0600000
  33.1000000  20.7900000  59.0600000  32.9100000  19.7200000  58.9700000
  34.0800000  21.0200000  60.2600000  34.4100000  22.0600000  60.2300000
  33.5500000  20.8200000  61.1900000  35.2400000  20.0200000  60.1900000
  34.9400000  18.9800000  60.3400000  35.8400000  20.1300000  59.2900000
  36.2500000  20.3000000  61.1800000  36.2600000  21.3500000  61.8000000
  37.0400000  19.3300000  61.5000000  37.7600000  19.4100000  62.2100000
  37.0600000  18.4800000  60.9600000  31.7300000  21.4900000  59.3400000
  31.0600000  21.0900000  60.2700000  31.3900000  22.5800000  58.7200000
  32.0500000  22.8300000  58.0000000  30.2000000  23.3500000  59.0700000
  30.0900000  24.1600000  58.3500000  28.9300000  22.5600000  58.8200000
  28.8300000  21.8500000  59.6400000  28.1100000  23.2600000  58.9700000
  28.8200000  21.9800000  57.4400000  29.4600000  22.6100000  56.8300000
  29.3200000  21.0300000  57.5400000  27.3100000  21.7200000  56.9000000
  26.6700000  21.1500000  57.5700000  26.8100000  22.6500000  56.6700000
  27.5400000  21.0400000  55.5800000  28.2800000  20.2500000  55.6600000
  26.6500000  20.4800000  55.2800000  27.9500000  21.9400000  54.4600000
  28.9100000  22.2400000  54.5600000  28.0400000  21.4900000  53.5600000
  27.3100000  22.7200000  54.3400000  30.2600000  24.2000000  60.4000000
  29.2800000  24.2800000  61.0500000  31.4700000  24.6600000  60.7600000
  32.2500000  24.4800000  60.1600000  31.7700000  25.4100000  61.9900000
  31.0000000  25.2600000  62.7500000  33.1100000  24.8600000  62.6700000
  33.9800000  25.0200000  62.0400000  33.2700000  25.3400000  63.6300000
  32.9800000  23.3500000  62.9400000  32.0100000  23.2100000  63.4200000
  33.0400000  22.7700000  62.0200000  34.1500000  22.8900000  63.8200000
  35.0000000  22.9600000  63.1400000  34.1800000  23.5100000  64.7100000
  33.9600000  21.4800000  64.2200000  33.0800000  21.0300000  64.4200000
  34.8000000  20.9200000  65.0900000  35.9700000  21.4500000  65.4000000
  36.2800000  22.3300000  65.0200000  36.6100000  20.9200000  65.9800000
  34.4200000  19.8300000  65.6800000  33.4600000  19.5200000  65.5800000
  35.1400000  19.4700000  66.2900000  31.8600000  26.9200000  61.6200000
  32.9200000  27.4800000  61.6600000  30.7800000  27.4500000  61.0800000
  29.9300000  26.9000000  61.1400000  30.7400000  28.7600000  60.4400000
  31.4200000  28.7400000  59.5900000  29.3200000  29.0800000  60.0000000
  28.6600000  29.5700000  60.7200000  29.5200000  29.8300000  59.2400000
  28.6300000  27.8800000  59.3200000  27.3300000  27.4900000  59.5800000
  26.7800000  27.7500000  60.4700000  26.9500000  26.5500000  58.6200000
  26.0900000  26.0100000  58.5800000  27.9800000  26.3100000  57.7400000
  28.0400000  25.6000000  56.5600000  27.1200000  25.1100000  56.2900000
  29.1500000  25.5400000  55.7400000  29.1900000  24.8300000  54.9200000
  30.3000000  26.1800000  56.1400000  31.1900000  26.1400000  55.5300000
  30.1900000  27.1200000  57.2000000  31.0300000  27.7600000  57.4400000
  29.0900000  27.1600000  58.1300000  31.2200000  29.9600000  61.3300000
  31.9100000  30.8100000  60.8500000  30.9200000  29.8800000  62.6400000
  30.5700000  29.0000000  62.9900000  31.4600000  30.9100000  63.5200000
  31.4800000  31.8900000  63.0500000  30.5600000  31.0200000  64.7700000
  30.6200000  30.0700000  65.2900000  30.9700000  31.6700000  65.5400000
  29.1700000  31.4900000  64.4000000  28.8700000  32.0400000  63.3100000
  28.2500000  31.3400000  65.2300000  32.9800000  30.8300000  63.8900000
  33.6100000  31.8800000  64.1500000  33.5600000  29.5900000  63.9100000
  32.9900000  28.8200000  63.6000000  34.9800000  29.3100000  64.1100000
  35.3000000  29.9500000  64.9300000  35.1800000  27.8300000  64.5800000
  34.7600000  27.1800000  63.8100000  36.2600000  27.7400000  64.7000000
  34.5200000  27.4600000  65.9200000  34.8500000  28.2800000  66.5600000
  33.4400000  27.4400000  65.8100000  35.0000000  26.0800000  66.3400000
  36.2400000  25.8500000  66.3300000  34.1300000  25.2400000  66.6000000
  35.8500000  29.6500000  62.8800000  37.0000000  30.1100000  63.0600000
  35.3100000  29.4000000  61.6600000  34.4400000  28.8900000  61.7500000
  35.9000000  29.7500000  60.3200000  36.9200000  29.3700000  60.3100000
  35.0100000  28.9800000  59.3000000  33.9700000  29.0400000  59.6100000
  35.0300000  29.3600000  58.2700000  35.3600000  27.9600000  59.1500000
  35.9600000  31.1900000  60.1200000  36.9200000  31.7000000  59.5900000
  34.9100000  31.9000000  60.5200000  34.1400000  31.3600000  60.8900000
  34.8500000  33.3500000  60.3600000  34.7900000  33.6500000  59.3100000
  33.4700000  33.7100000  61.0300000  33.4400000  33.4700000  62.1000000
  33.3500000  34.7800000  60.8700000  32.6500000  33.1800000  60.5600000
  35.9500000  34.0000000  61.1800000  36.3800000  35.0700000  60.7600000
  36.2800000  33.5000000  62.3900000  35.8000000  32.6600000  62.6700000
  37.3600000  33.9900000  63.1900000  37.1400000  35.0200000  63.4500000
  37.5500000  33.2800000  64.4900000  37.3800000  32.2300000  64.2500000
  38.8600000  33.5300000  65.3200000  39.0300000  34.6000000  65.3300000
  38.8100000  33.1900000  66.3500000  39.7300000  33.0600000  64.8700000
  36.3900000  33.7800000  65.3800000  35.4800000  33.4700000  64.8600000
  36.3300000  33.2900000  66.3500000  36.4400000  34.8500000  65.5400000
  38.6900000  33.8500000  62.4000000  39.3500000  34.8800000  62.2200000
  38.9400000  32.6500000  61.9600000  38.3400000  31.9100000  62.2900000
  40.1800000  32.3100000  61.2600000  41.0400000  32.6100000  61.8600000
  40.1400000  30.7500000  61.1500000  39.9200000  30.1900000  62.0600000
  39.4500000  30.3700000  60.4000000  41.5100000  30.3500000  60.7900000
  41.8000000  30.0600000  59.6200000  42.3500000  30.1000000  61.7900000
  43.3000000  30.0800000  61.4600000  42.1600000  30.3300000  62.7600000
  40.3300000  33.0900000  59.9700000  41.4000000  33.5600000  59.6100000
  39.2500000  33.2600000  59.1700000  38.4000000  32.7500000  59.3600000
  39.3000000  34.1000000  58.0400000  40.1200000  33.7000000  57.4500000
  37.9100000  34.0000000  57.3300000  37.1700000  34.3700000  58.0400000
  37.9700000  34.8200000  56.6100000  37.5900000  32.7700000  56.5900000
  37.5200000  31.9100000  57.2500000  36.2200000  32.9300000  55.8900000
  36.1300000  33.8500000  55.3100000  35.9000000  32.1800000  55.1800000
  35.4600000  33.0300000  56.6600000  38.5100000  32.4700000  55.4400000
  39.5400000  32.3300000  55.7700000  38.1100000  31.5900000  54.9400000
  38.4300000  33.3700000  54.8200000  39.7000000  35.5300000  58.3700000
  40.5200000  36.1200000  57.6500000  39.2000000  36.1400000  59.4800000
  38.5000000  35.6500000  60.0200000  39.6700000  37.5300000  59.9400000
  39.6500000  38.1000000  59.0100000  38.7400000  38.1600000  60.9300000
  38.8600000  37.7300000  61.9200000  38.9800000  39.2200000  61.0300000
  37.7200000  37.9300000  60.6400000  41.1500000  37.5600000  60.3700000
  41.7800000  38.6000000  60.1600000  41.7000000  36.4200000  60.7300000
  41.1100000  35.6400000  61.0000000  43.1500000  36.2400000  60.9900000
  43.4300000  37.1500000  61.5200000  43.3700000  35.0500000  61.9700000
  43.0100000  34.1200000  61.5300000  44.4300000  34.8600000  62.1600000
  42.7300000  35.2900000  63.3600000  43.1800000  36.1900000  63.7900000
  41.6500000  35.4500000  63.3200000  42.9400000  34.0700000  64.3200000
  42.5100000  33.2100000  63.7900000  43.9600000  33.7400000  64.5100000
  42.3500000  34.3100000  65.7200000  43.0100000  35.1000000  66.0900000
  41.3500000  34.7200000  65.6400000  42.3700000  33.1700000  66.5400000
  43.2400000  32.6700000  66.4200000  42.3200000  33.4100000  67.5300000
  41.6700000  32.4500000  66.4100000  44.0000000  36.2400000  59.7100000
  44.7900000  35.3700000  59.5500000  43.9700000  37.2600000  58.8400000
  43.3200000  38.0000000  59.0600000  44.6400000  37.2500000  57.4800000
  45.5800000  36.7100000  57.4600000  43.6600000  36.5900000  56.4400000
  44.1500000  36.7100000  55.4700000  43.4800000  35.5600000  56.7300000
  42.4200000  37.2200000  56.1600000  41.7200000  36.7900000  56.6600000
  44.9500000  38.6500000  57.0000000  44.2100000  39.6400000  57.1500000
  46.0200000  38.7600000  56.2200000  46.3900000  37.8800000  55.8900000
  46.3400000  39.9400000  55.4400000  46.5000000  40.7700000  56.1200000
  47.6900000  39.8000000  54.7200000  48.3300000  39.8100000  55.6000000
  47.8400000  38.8300000  54.2500000  48.0300000  40.8600000  53.6800000
  47.1700000  41.0100000  53.0100000  48.1400000  41.7800000  54.2500000
  49.3400000  40.5900000  52.8900000  50.1500000  40.1200000  53.4500000
  49.2600000  39.7900000  52.1500000  49.7400000  41.8100000  52.1000000
  50.4300000  42.4200000  52.5100000  49.2200000  42.2900000  51.0200000
  48.2800000  41.7800000  50.3500000  47.9400000  40.8400000  50.5000000
  47.9800000  42.4000000  49.6200000  49.5400000  43.4700000  50.7200000
  50.2500000  43.9700000  51.2400000  49.2800000  43.7500000  49.7900000
  45.2200000  40.2300000  54.5200000  44.8900000  41.3800000  54.3300000
  44.5500000  39.2100000  53.9500000  44.9400000  38.3000000  54.1500000
  43.2900000  39.4300000  53.1800000  43.4900000  40.0500000  52.3000000
  42.6900000  38.0900000  52.6900000  43.4000000  37.6600000  51.9800000
  42.7800000  37.4800000  53.5900000  41.3600000  38.1500000  52.0400000
  41.1500000  38.7400000  50.8600000  41.8400000  39.2400000  50.2000000
  39.8200000  38.6800000  50.5900000  39.3500000  39.1000000  49.8000000
  39.1300000  37.9300000  51.5200000  37.8000000  37.5900000  51.6500000
  37.0600000  37.8100000  50.8900000  37.4500000  36.8500000  52.7800000
  36.4400000  36.4900000  52.8800000  38.3900000  36.4800000  53.8100000
  37.9400000  35.9600000  54.6400000  39.7100000  37.0200000  53.7300000
  40.3600000  36.9300000  54.5900000  40.0900000  37.7000000  52.5600000
  42.2200000  40.3400000  53.8700000  41.5300000  41.1700000  53.2600000
  42.0500000  40.1100000  55.1800000  42.5400000  39.3500000  55.6100000
  41.1800000  40.9800000  55.9900000  40.3800000  41.2000000  55.2800000
  40.7800000  40.2700000  57.2700000  40.4300000  39.2900000  56.9500000
  41.6000000  39.9200000  57.8800000  39.7400000  40.9300000  58.0600000
  38.3900000  40.8000000  57.5900000  38.2400000  40.0400000  56.8400000
  37.3900000  41.5900000  58.1600000  36.3800000  41.5700000  57.7700000
  37.7500000  42.4900000  59.1200000  36.7600000  43.2200000  59.6200000
  37.0400000  44.0700000  59.9500000  38.9900000  42.6200000  59.6000000
  39.2300000  43.3100000  60.3900000  40.0400000  41.7900000  59.1200000
  41.0800000  41.8600000  59.4100000  41.8100000  42.3700000  56.1900000
  41.2000000  43.3900000  55.9500000  43.0400000  42.4500000  56.6400000
  43.4800000  41.5500000  56.8200000  43.7300000  43.7000000  57.0300000
  42.9900000  44.2600000  57.6000000  45.0000000  43.3600000  57.8600000
  45.5300000  42.5500000  57.3500000  45.6800000  44.2100000  57.9500000
  44.7400000  42.9000000  59.2800000  45.3100000  41.9100000  59.7200000
  43.9400000  43.5800000  60.0500000  43.8700000  43.2100000  60.9900000
  43.7200000  44.5300000  59.7900000  44.0300000  44.6200000  55.9200000
  44.2900000  45.7900000  56.2400000  43.9200000  44.1800000  54.6300000
  43.8500000  43.1800000  54.4700000  44.0900000  45.0500000  53.4500000
  44.5200000  46.0300000  53.6700000  45.0000000  44.2800000  52.4100000
  44.6300000  43.3100000  52.0700000  45.2000000  44.9300000  51.5600000
  46.4200000  44.0700000  53.0300000  46.2100000  43.4500000  53.9100000
  47.0700000  43.6200000  52.2800000  47.1400000  45.3300000  53.4400000
  47.4800000  45.5700000  54.5300000  47.4500000  46.2800000  52.5600000
  47.8700000  47.0900000  53.0000000  47.3500000  46.2700000  51.5600000
  42.7900000  45.4200000  52.7900000  42.7300000  46.5400000  52.2900000
  41.8200000  44.5200000  52.8200000  41.9900000  43.6600000  53.3200000
  40.4400000  44.8400000  52.3900000  40.4700000  45.9100000  52.1900000
  40.1800000  44.1500000  51.0000000  39.1100000  44.3500000  50.9000000
  40.9500000  44.6400000  49.8700000  40.6200000  44.2100000  48.9300000
  40.7500000  45.7100000  49.8200000  42.0300000  44.5000000  50.0000000
  40.4900000  42.7400000  51.0100000  40.6800000  42.3800000  51.8800000
  39.3200000  44.6100000  53.3900000  38.5100000  43.6800000  53.2500000
  39.3600000  45.2400000  54.5600000  40.2600000  46.3700000  54.9100000
  40.0300000  47.1700000  54.2200000  41.2800000  46.0000000  55.0400000
  39.6600000  46.8200000  56.2800000  38.8100000  47.5000000  56.2100000
  40.4300000  47.2800000  56.9000000  39.1200000  45.5900000  56.8800000
  38.4100000  45.7600000  57.6900000  39.9500000  45.0100000  57.2700000
  38.5400000  44.8200000  55.6500000  38.7200000  43.7500000  55.7500000
  37.0500000  45.0500000  55.4400000  36.3200000  44.2900000  55.9800000
  36.6700000  46.0200000  54.6100000  37.3300000  46.5500000  54.0500000
  35.2300000  46.1300000  54.2700000  34.6400000  46.0600000  55.1900000
  35.0100000  47.4400000  53.5900000  35.6500000  47.4300000  52.7100000
  34.0300000  47.5300000  53.1200000  35.3500000  48.7300000  54.4000000
  35.8300000  48.7200000  55.5700000  35.2000000  49.8300000  53.7200000
  34.7500000  44.9500000  53.3400000  33.8600000  44.1800000  53.6400000
  35.4500000  44.7800000  52.1600000  36.2600000  45.3500000  51.9600000
  35.2000000  43.5900000  51.2800000  34.2000000  43.6800000  50.8600000
  36.1100000  43.6800000  50.0000000  35.9000000  44.5900000  49.4300000
  37.1500000  43.7100000  50.3200000  36.0200000  42.3600000  49.1400000
  36.6300000  41.5600000  49.5700000  35.0100000  41.9700000  49.0500000
  36.6800000  42.4900000  47.8100000  36.1800000  43.3400000  47.3400000
  37.7400000  42.7100000  47.8100000  36.5200000  41.3200000  46.9100000
  35.8700000  40.5800000  47.1400000  37.1000000  41.2400000  45.7200000
  38.0800000  42.0200000  45.3300000  38.5100000  42.5400000  46.0800000
  38.4700000  42.0000000  44.4000000  36.7500000  40.3900000  44.7900000
  36.0400000  39.6800000  44.9300000  37.2400000  40.5600000  43.9200000
  35.2400000  42.2300000  51.9600000  34.2600000  41.5000000  51.9900000
  36.3500000  42.0300000  52.7300000  37.0800000  42.7200000  52.7400000
  36.5600000  40.8100000  53.5000000  36.5800000  40.0200000  52.7400000
  37.9300000  40.8900000  54.2800000  37.8700000  41.7200000  54.9900000
  38.1000000  39.9100000  54.7300000  38.7100000  41.0200000  53.5300000
  35.4300000  40.5500000  54.4700000  34.9300000  39.4400000  54.5500000
  34.9200000  41.5600000  55.2100000  35.3800000  42.4400000  55.0400000
  33.8400000  41.4500000  56.2300000  34.2300000  40.7100000  56.9300000
  33.6700000  42.7900000  56.9800000  34.6100000  43.0800000  57.4600000
  33.3800000  43.6300000  56.3500000  32.6600000  42.6300000  58.0900000
  31.7200000  42.2200000  57.7300000  32.9600000  41.8700000  58.8100000
  32.3300000  44.0000000  58.7700000  32.0200000  44.7900000  58.0900000
  31.4100000  43.8900000  59.3400000  33.5100000  44.6100000  59.5900000
  33.9400000  43.9600000  60.3500000  34.2900000  44.7700000  58.8500000
  33.1000000  45.8800000  60.2400000  32.1600000  45.8100000  60.6200000
  33.6900000  46.0900000  61.0300000  33.1200000  46.6200000  59.5500000
  32.5200000  40.8200000  55.6300000  31.8400000  39.9800000  56.2100000
  32.2400000  41.3800000  54.4000000  32.8300000  42.1500000  54.1200000
  31.0700000  41.0000000  53.6000000  30.1600000  41.1400000  54.1900000
  30.8200000  41.8900000  52.3600000  31.6300000  41.9200000  51.6300000
  29.9700000  41.4400000  51.8700000  30.5000000  43.3600000  52.6600000
  29.6200000  43.3200000  53.3000000  31.2900000  43.8900000  53.2000000
  30.1100000  44.0500000  51.3400000  29.3100000  43.4600000  50.9000000
  29.8300000  45.0700000  51.5900000  31.1700000  44.0300000  50.2900000
  31.1600000  43.4300000  49.4800000  32.0700000  45.0100000  50.2000000
  32.2800000  45.8500000  51.1100000  31.8300000  45.8200000  52.0100000
  32.9100000  46.5800000  50.8200000  32.6300000  45.2000000  49.0800000
  32.4300000  44.6400000  48.2700000  33.0500000  46.1100000  48.9100000
  31.1900000  39.6100000  53.1100000  30.2700000  38.7600000  53.2200000
  32.3900000  39.2500000  52.6100000  33.0500000  40.0100000  52.5100000
  32.6700000  37.8700000  52.1300000  31.7600000  37.6400000  51.5700000
  33.9600000  37.7700000  51.3100000  34.8100000  38.2500000  51.8100000
  34.3100000  36.3100000  51.1100000  33.6200000  35.8300000  50.4100000
  35.2900000  36.2600000  50.6300000  34.3400000  35.7800000  52.0600000
  33.7500000  38.4100000  49.9300000  33.3300000  39.4100000  49.9900000
  34.7100000  38.5400000  49.4400000  32.9600000  37.8300000  49.4600000
  32.5500000  36.9400000  53.3400000  31.8400000  35.9400000  53.3500000
  33.1900000  37.2300000  54.4700000  33.8200000  38.0200000  54.4800000
  33.2200000  36.4000000  55.6600000  33.5100000  35.3600000  55.4800000
  34.1900000  36.9900000  56.7500000  34.0100000  38.0600000  56.7900000
  33.9700000  36.3700000  58.1500000  34.0400000  35.2900000  58.1100000
  34.7000000  36.7100000  58.8900000  32.9800000  36.5400000  58.5700000
  35.6900000  36.7700000  56.3200000  35.9200000  35.7000000  56.3700000
  35.8300000  37.0800000  55.2800000  36.6900000  37.5300000  57.2400000
  36.7400000  36.9200000  58.1500000  37.7000000  37.5900000  56.8400000
  36.3000000  38.4900000  57.5800000  31.8000000  36.2000000  56.3200000
  31.5000000  35.1200000  56.7500000  30.9400000  37.2300000  56.2800000
  31.3300000  38.0700000  55.8900000  29.5400000  37.1200000  56.6200000
  29.4300000  36.9000000  57.6900000  28.8300000  38.4500000  56.5300000
  28.9900000  38.9200000  55.5500000  27.3700000  38.3600000  56.7900000
  26.9700000  39.3400000  57.0000000  26.9300000  37.8100000  55.9600000
  27.2500000  37.7400000  57.6800000  29.4300000  39.3800000  57.4400000
  30.3400000  39.5200000  57.1600000  28.7500000  36.0900000  55.7100000
  28.0500000  35.2700000  56.1800000  29.1000000  36.1500000  54.4200000
  29.8200000  36.8200000  54.1800000  28.5200000  35.3200000  53.4000000
  27.4400000  35.4200000  53.4600000  28.8300000  35.7500000  52.0000000
  29.8300000  35.5200000  51.6300000  27.9300000  35.0500000  51.0300000
  27.8600000  34.0000000  51.3300000  26.9300000  35.4900000  51.1100000
  28.3100000  35.0200000  50.0100000  28.5600000  37.1200000  51.7400000
  29.2200000  37.5300000  52.3200000  28.9500000  33.8400000  53.6900000
  28.1500000  32.9700000  53.4700000  30.2100000  33.5600000  54.0800000
  30.8500000  34.2900000  54.3500000  30.6100000  32.2900000  54.7100000
  30.3500000  31.4700000  54.0400000  32.0600000  32.0800000  54.9200000
  32.4800000  32.8700000  55.5400000  32.1500000  31.1300000  55.4600000
  32.9200000  31.8600000  53.6700000  33.9900000  32.6600000  53.3200000
  34.2000000  33.5800000  53.8300000  34.8300000  32.3700000  52.2100000
  35.7000000  32.9400000  51.9400000  34.6500000  31.1600000  51.5300000
  35.2800000  30.9300000  50.6900000  33.5100000  30.3700000  51.7400000
  33.3900000  29.4300000  51.2400000  32.7300000  30.6600000  52.8800000
  31.8800000  30.0800000  53.2000000  29.9500000  31.9300000  56.0500000
  29.7700000  30.7400000  56.1900000  29.7300000  32.9000000  56.9500000
  29.9700000  33.8500000  56.6800000  29.1400000  32.6700000  58.2400000
  29.6400000  31.7900000  58.6700000  29.4200000  33.8600000  59.1600000
  30.4700000  34.1500000  59.0900000  28.7400000  34.6600000  58.8600000
  29.2100000  33.5300000  60.6400000  28.1800000  33.2100000  60.7900000
  29.8000000  32.6900000  60.9900000  29.4700000  34.7400000  61.5700000
  29.1100000  34.5000000  62.5700000  30.5400000  34.9300000  61.5300000
  28.6900000  35.8900000  61.0600000  27.6900000  35.8200000  61.0300000
  29.2300000  36.9800000  60.5200000  30.4900000  37.1200000  60.3300000
  31.1300000  36.4900000  60.8000000  30.8200000  37.9300000  59.8300000
  28.4000000  37.9100000  60.1100000  27.4300000  37.7900000  60.3600000
  28.7500000  38.7800000  59.7400000  27.6300000  32.3700000  58.3600000
  27.2600000  31.3900000  58.9600000  26.8100000  33.2200000  57.6400000
  27.2100000  34.0700000  57.2700000  25.3100000  33.1800000  57.6600000
  25.0500000  32.9000000  58.6800000  24.6800000  34.5800000  57.3800000
  23.6400000  34.2900000  57.5300000  25.0500000  35.6300000  58.3400000
  24.7000000  36.5300000  57.8300000  24.6300000  35.4000000  59.3100000
  26.1300000  35.7200000  58.4700000  24.9900000  34.9200000  56.0700000
  24.3900000  35.5800000  55.6900000  24.6200000  32.2400000  56.7000000
  23.5700000  31.6800000  56.9100000  25.3500000  32.0100000  55.5800000
  26.2300000  32.5000000  55.5700000  24.9400000  31.3800000  54.3400000
  25.8500000  31.3500000  53.7400000  24.5700000  30.3900000  54.6200000
  23.8800000  32.1800000  53.6100000  23.0800000  31.5700000  52.8600000
  23.7200000  33.4700000  53.8300000  24.3100000  33.8700000  54.5400000
  22.8000000  34.4300000  53.2400000  22.0300000  33.9700000  52.6200000
  21.9600000  35.1100000  54.3400000  21.2600000  35.6900000  53.7400000
  21.1200000  34.0900000  55.0800000  21.7000000  33.4800000  55.7800000
  20.3200000  34.6100000  55.6200000  20.5700000  33.4100000  54.4200000
  22.7400000  35.9700000  55.2700000  22.1800000  36.6200000  55.6900000
  23.4400000  35.5800000  52.5100000  24.6600000  35.8800000  52.7200000
  22.6200000  36.3000000  51.7400000  21.6700000  35.9500000  51.7600000
  23.0800000  37.4300000  50.9000000  24.1000000  37.1200000  50.6600000
  22.2200000  37.6000000  49.6800000  21.1500000  37.6300000  49.9300000
  22.2200000  38.6100000  49.2800000  22.4400000  36.5500000  48.6800000
  21.5300000  35.6200000  48.3200000  20.5200000  35.5100000  48.6900000
  22.1500000  34.6500000  47.5200000  21.8100000  33.7200000  47.3000000
  23.4400000  34.9100000  47.2400000  24.3500000  34.2800000  46.5100000
  24.1700000  33.2800000  46.1500000  25.5200000  34.8800000  46.1200000
  26.1200000  34.4100000  45.3500000  25.8300000  36.1800000  46.7100000
  26.7100000  36.7600000  46.4800000  24.9200000  36.7100000  47.6800000
  25.0300000  37.6900000  48.1400000  23.6300000  36.0900000  47.9000000
  23.1400000  38.7400000  51.7200000  23.1200000  39.8600000  51.1400000
  23.0800000  38.7100000  53.0600000  23.1400000  37.8300000  53.5500000
  22.6800000  39.8500000  53.8400000  21.6900000  40.1300000  53.4700000
  22.4600000  39.4800000  55.2600000  23.3200000  38.9100000  55.6200000
  22.4200000  40.4200000  55.8100000  21.1700000  38.7100000  55.5700000
  20.0900000  39.0800000  55.1800000  21.2100000  37.7900000  56.4500000
  23.6600000  41.0600000  53.7500000  23.2200000  42.1800000  54.0100000
  24.9300000  40.7100000  53.6400000  25.1400000  39.7300000  53.5300000
  25.9800000  41.6500000  53.3200000  25.7800000  42.5500000  53.8900000
  27.3100000  41.0400000  53.7600000  27.3100000  40.7400000  54.8100000
  27.5300000  40.2200000  53.0800000  28.1100000  41.7800000  53.7400000
  25.8700000  42.2900000  51.8200000  26.7000000  43.1800000  51.4800000
  24.9400000  41.8400000  50.9400000  24.2800000  41.1600000  51.3000000
  24.8600000  42.2200000  49.5900000  25.4700000  43.0800000  49.3300000
  25.3900000  41.0300000  48.8500000  24.8600000  40.1200000  49.1200000
  25.2400000  41.3100000  47.8100000  26.9100000  40.8600000  48.9200000
  27.5800000  40.0000000  49.8600000  27.0100000  39.3400000  50.5000000
  28.9400000  39.9700000  49.9400000  29.4400000  39.3400000  50.6600000
  29.7500000  40.6500000  49.0200000  31.0900000  40.4600000  49.0900000
  31.4700000  40.8600000  48.3000000  29.1200000  41.5100000  48.0900000
  29.7700000  42.0600000  47.4200000  27.7400000  41.6200000  47.9500000
  27.3700000  42.2500000  47.1500000  23.4600000  42.5900000  49.0400000
  23.3400000  43.3600000  48.0700000  22.3700000  42.1300000  49.7200000
  22.5300000  41.5100000  50.5000000  20.9700000  42.3300000  49.3200000
  20.9400000  41.9600000  48.2900000  19.9400000  41.5400000  50.1400000
  19.0700000  41.3600000  49.5200000  20.4300000  40.5900000  50.3800000
  19.5000000  42.1400000  51.4400000  20.3300000  42.3400000  52.1200000
  18.8900000  43.0200000  51.2600000  18.5700000  41.1000000  52.1400000
  17.8200000  40.8300000  51.4000000  19.1700000  40.2100000  52.3000000
  18.1300000  41.5800000  53.4900000  19.0600000  42.0300000  53.8400000
  17.3800000  42.3500000  53.3500000  17.7800000  40.4500000  54.3700000
  18.6000000  39.8500000  54.3900000  17.5900000  40.9200000  55.2400000
  16.9100000  40.0500000  54.0500000  20.4500000  43.8200000  49.1000000
  19.6300000  43.9900000  48.1900000  20.8800000  44.9300000  49.8000000
  20.5800000  45.8200000  49.4400000  21.7400000  44.9200000  51.0000000
  21.9000000  43.8900000  51.3200000  23.0600000  45.6500000  50.7100000
  23.3200000  45.9700000  51.7200000  23.8200000  44.9700000  50.3300000
  22.9300000  46.8900000  49.8300000  22.0000000  47.7200000  49.8900000
  23.8900000  47.1400000  48.9900000  23.9000000  47.9700000  48.4100000
  24.7600000  46.6200000  49.0600000  20.8800000  45.5700000  52.1200000
  19.9800000  46.3800000  51.9400000  21.3500000  45.4500000  53.3700000
  22.1100000  44.8000000  53.4900000  20.6700000  45.9700000  54.5700000
  21.0000000  45.4400000  55.4700000  20.7900000  47.0300000  54.8100000
  19.6100000  45.8400000  54.3600000
