Cpptraj Generated Restart                                                       
 2623  0.0000000E+00
  17.6100004  38.0800009  44.4200039  18.0000007  37.2900009  43.7900019
  18.0100012  37.3700023  42.6999998  17.3300004  36.4500022  43.9900017
  19.3800008  36.9700027  44.2200041  19.6500015  36.0000014  44.8600006
  20.2500010  37.9300022  43.8800001  19.8600006  38.7900019  43.5100031
  21.7100000  37.8200006  43.8900042  22.0400000  38.7300014  43.3800030
  22.1900010  37.9200029  45.3600025  21.6100001  37.2600007  46.0000038
  23.1900001  37.4800014  45.3700018  22.1800017  39.3300009  45.8600044
  21.1300015  39.6500015  45.8100033  22.5800014  39.3300009  46.8700027
  23.2400012  40.4300022  44.9900007  24.8000002  39.6400023  45.0400019
  25.0500011  38.9700007  44.2200041  25.5200005  40.4600000  45.0700045
  24.9600005  39.0300012  45.9400034  22.3500013  36.6200018  43.1100035
  21.5900016  35.6900024  42.7100039  23.6600018  36.5400028  42.8500032
  24.2200017  37.3600006  43.0100012  24.4500017  35.4200006  42.2700024
  24.3000007  34.5200014  42.8600025  24.0400004  35.1800013  40.8200026
  24.6700001  34.5000005  40.2500010  23.0100012  34.8200011  40.7900000
  24.0800023  36.4800024  40.0200033  25.1300001  37.1100020  39.8200011
  22.9500008  36.8400025  39.5500016  22.8400016  37.7700019  39.1800022
  22.0800018  36.3700008  39.7800016  25.9200001  35.9400010  42.3000002
  26.1800003  37.1300006  42.5900030  26.8700004  35.0600028  41.9300032
  26.5300012  34.1100025  41.9300032  28.3400011  35.4500008  41.9900036
  28.4000015  35.8600020  43.0000019  29.2100024  34.2800021  41.7200041
  29.0000010  33.4600019  42.4100018  29.0600014  33.6600018  40.3299999
  29.2700005  34.4600010  39.6200013  29.7800016  32.8400016  40.2800035
  28.0700016  33.2400012  40.1200008  30.7000017  34.6700025  41.8700027
  31.4000010  33.9000010  41.5500021  31.0400009  35.4100013  41.1400032
  31.0800004  35.1200008  43.3200026  30.7100010  34.3200016  43.9499998
  32.1600008  35.2500010  43.4100008  30.6200004  36.0600019  43.6300039
  28.6100006  36.6200018  41.0800028  29.4300008  37.4800014  41.5400028
  27.9300022  36.8500018  39.9600029  27.2900009  36.1100006  39.7100019
  28.1800008  38.0200028  39.0800023  29.2600012  38.0300021  38.9400029
  27.5700021  37.8100014  37.7400017  26.4900017  37.6500010  37.7400017
  27.7500010  38.6300015  37.0400023  28.1300020  36.6200018  36.9200015
  27.4900007  35.4100013  36.9100022  26.6500020  35.1900005  37.5500011
  28.0000019  34.3500018  36.1000013  27.5100017  33.4000015  36.1800027
  29.1400003  34.4700027  35.3900027  29.6700025  33.6900020  34.8700023
  29.7400022  35.7600021  35.3800011  30.6100011  35.9300017  34.7600007
  29.2900014  36.8200016  36.1700010  29.6700025  37.8300023  36.1600018
  27.8200006  39.2800021  39.7500014  28.4700012  40.3200006  39.6400023
  26.6500020  39.3200016  40.3800011  26.1400008  38.4500027  40.4300022
  26.1800003  40.4900026  41.1199999  26.1800003  41.3800001  40.4900026
  24.6800017  40.1999998  41.3900042  24.4600010  39.2000008  41.7500019
  24.4300008  40.7700014  42.2800016  23.8000011  40.6000042  40.2100039
  23.9000010  41.6800022  40.0900030  24.1300011  40.1200008  39.2900014
  22.3500013  40.2500010  40.4800034  21.7800021  40.5000019  41.6000032
  21.6600013  39.7700024  39.5300007  27.0600009  40.7400036  42.3900032
  27.3100019  41.8900013  42.6900005  27.7000022  39.7000027  42.9800034
  27.4900007  38.7900019  42.6100016  28.5300016  39.8100019  44.1700029
  27.9100013  40.3800011  44.8699999  28.7400007  38.4100008  44.6900034
  27.7500010  37.9500008  44.7600031  29.4000006  37.8800011  44.0100002
  29.2000008  38.4300017  46.1600018  30.0200009  39.1400027  46.2000036
  28.3700013  38.7100029  46.8200016  29.8400021  36.7900014  46.7200041
  30.0300026  36.9900012  48.5800028  29.0900016  37.3500013  49.0000010
  30.3500009  36.0900021  49.1000032  30.7400012  37.7900028  48.8000011
  29.8700023  40.4400015  43.8400030  30.2600026  41.4600039  44.4000006
  30.5900025  39.8700023  42.9100037  30.4100013  38.9700007  42.4900007
  31.8500018  40.4800034  42.5200033  32.5300026  40.7300043  43.3400011
  32.5500011  39.4900012  41.5799999  31.7300010  39.0500021  41.0100031
  33.2300019  40.1300001  41.0200024  33.3100009  38.3800030  42.3500013
  32.6500010  37.9100013  43.0800009  33.7700009  37.3000026  41.4100027
  34.3300009  37.8400016  40.6500006  34.3500018  36.5400028  41.9400024
  32.9100013  36.7500019  41.0400009  34.5700026  38.9300013  42.9400015
  34.4100022  39.8100019  43.5600042  34.9800014  38.1600022  43.5800028
  35.2200007  39.2300010  42.1099997  31.6200018  41.8200016  41.7400026
  32.5500011  42.6999998  41.8100023  30.4800010  42.0400000  41.0100031
  29.7600007  41.3500023  41.0900021  30.1800013  43.3000040  40.4200029
  31.0600019  43.5700035  39.8400021  29.0000010  43.2200003  39.4500017
  29.2100024  42.5699997  38.6100030  28.2200003  42.7700043  40.0600004
  28.3900023  44.4600010  39.0100026  27.5200009  44.1100025  38.4500027
  28.0300021  45.0700045  39.8400021  29.4300008  45.2200031  38.1200027
  30.3700018  45.3200006  38.6600018  29.6300006  44.6200037  37.2300029
  28.9400005  46.5100002  37.6700020  28.3400011  46.4700031  36.8600011
  29.1200018  47.7100039  38.2900023  29.8200011  47.8299999  39.3700027
  30.2600026  46.9900036  39.7100019  29.6200013  48.6300039  39.9600029
  28.5700011  48.8300037  37.9200029  28.0700016  48.8300037  37.0500016
  28.7500024  49.7000027  38.4000015  30.0900006  44.4800043  41.4600039
  30.7100010  45.5500031  41.2500000  29.4700003  44.1900015  42.6200008
  29.0900016  43.2600021  42.7500010  29.3900013  45.0700045  43.7800026
  28.9100003  45.9800005  43.4000015  28.5300016  44.4800043  44.8800039
  28.7700009  43.4200001  44.8300028  28.7900019  44.8600006  46.3100004
  28.9700007  45.9300041  46.3500023  28.0200005  44.7100019  47.0600033
  29.7400022  44.4099998  46.6000032  26.9900012  44.6200037  44.5500040
  26.6600013  45.6100035  44.8600006  26.8900013  44.4500017  43.4800005
  26.0400009  43.7100029  45.2900028  25.9800005  44.1200018  46.3000011
  25.1300001  43.7900019  44.7000027  26.3900018  42.6800013  45.2600002
  30.8000016  45.3600025  44.2900038  31.1900020  46.5300035  44.3600035
  31.6200018  44.3500042  44.6300030  31.3500023  43.3800030  44.4800043
  32.9200006  44.4800043  45.2800035  32.7000022  45.1800013  46.0900021
  33.3100009  43.1000042  45.8400011  33.3900023  42.4400043  44.9800014
  34.3600011  43.1599998  46.1500025  32.4900007  42.3800039  46.8500042
  31.8300009  43.1300020  47.5700045  32.8000021  41.2100029  47.1300030
  34.0600014  44.9200010  44.3500042  34.8500013  45.7700014  44.7900009
  34.0700006  44.6100044  43.1100035  33.4900022  43.8300037  42.8100014
  35.0800014  44.8900032  42.0900011  35.9900022  45.1600027  42.6200008
  35.4200006  43.7300014  41.1199999  34.5300007  43.4899998  40.5299997
  36.2200022  44.1300011  40.5100012  35.9100008  42.4400043  41.7900038
  35.3900027  42.2100019  42.7100039  35.8000016  41.5300035  41.2000036
  37.3800015  42.4900007  42.1900034  38.0000019  43.5700035  42.1099997
  38.0400014  41.4900017  42.6400042  34.7800016  46.1100006  41.2000036
  35.5900025  46.5100002  40.3700018  33.5500026  46.6800022  41.4000034
  32.9200006  46.1300039  41.9600010  33.1700015  47.9200029  40.6300020
  32.1600008  48.2700014  40.8500004  33.8000011  48.8000011  40.7700014
  33.1500006  47.6800013  39.1100025  32.8700018  46.5799999  38.6800027
  33.2600021  48.7500000  38.2800007  33.5300016  49.6300030  38.6900020
  33.2700014  48.6600018  36.8100023  33.9600015  47.8600025  36.5700006
  31.8600011  48.4400034  36.1900020  31.4900017  47.4600029  36.5000010
  31.1800003  49.2400026  36.4800024  31.9500017  48.5800028  34.6600008
  32.5200009  49.4700003  34.3900013  32.5300026  47.2900009  34.0200019
  31.9000006  46.4100027  34.1200018  32.7600026  47.4600029  32.9700017
  33.5100007  46.9900036  34.4100022  30.4700017  48.6900043  34.1300011
  29.9700022  49.4300032  34.7600007  30.5600023  48.9700031  33.0800009
  29.9400020  47.7700043  34.3400025  34.0500021  49.9100018  36.3700008
  33.6100006  51.0400009  36.7100024  35.1900005  49.7600031  35.7600021
  35.4700017  48.8500023  35.4500008  35.9500027  50.8900023  35.2500010
  35.3600025  51.8000031  35.2300024  37.1300006  51.2600040  36.1600018
  37.7500010  50.4100037  36.4300013  37.7700019  52.0100021  35.7000017
  36.6500020  51.7900038  37.5600028  35.9900022  52.6600027  37.4800014
  36.0500026  50.9900045  38.0000019  37.8600025  52.1800041  38.4300017
  37.5400019  52.2600031  39.4600010  38.6200023  51.4000034  38.3900023
  38.4800029  53.4200048  37.9400015  38.0100012  54.0300035  37.2900009
  39.5800018  53.9500046  38.5100007  40.2300024  53.2900047  39.4000030
  39.8900008  52.4600029  39.8800015  41.1800003  53.5900021  39.5400023
  40.1200008  55.1200008  38.2700014  39.7400022  55.6700039  37.5100017
  40.9200001  55.3300047  38.8500023  36.4900017  50.5000019  33.8300014
  37.1000028  49.4400024  33.6200023  36.2600017  51.2900019  32.7900004
  35.6400013  52.0600033  32.9900026  36.5900016  50.9600019  31.3900018
  36.5100026  49.8800039  31.2900019  35.5100012  51.5300035  30.4800010
  35.5400014  52.6200008  30.5600023  35.7500029  51.1300039  29.5000005
  34.0900016  51.0100031  30.7800007  33.8700008  51.4100027  31.7700005
  33.1200027  51.5100002  29.7000003  33.3600020  51.0600042  28.7500024
  32.1000004  51.2200022  29.9500012  33.2600021  52.5900030  29.7400022
  33.9300013  49.4700003  30.8000016  34.6600008  48.8800001  31.3400006
  32.8900027  49.1900015  31.0100007  34.1100025  49.2100000  29.7500014
  38.0500007  51.2700033  30.8600020  38.5300016  50.6000042  29.9500012
  38.7100029  52.3000002  31.4300013  38.2400012  52.9100037  32.0800018
  40.1000023  52.5100040  31.2000012  40.3700018  52.1800041  30.1900005
  40.3299999  54.0900040  31.3200021  40.2300024  54.3000031  32.3800015
  41.2900019  54.4800043  30.9800005  39.2600012  55.0500011  30.7200003
  39.4000030  54.9700022  29.6400023  38.2900023  54.7300005  31.1200023
  39.5500016  56.4500046  31.2700009  39.2300010  56.4500046  32.3100019
  40.6100035  56.6800022  31.2400007  38.7500024  57.5200033  30.5100012
  38.9800024  57.5200033  29.4500017  37.7200007  57.1800041  30.6700015
  38.9300013  58.8700008  31.0900021  39.9000025  59.1400051  31.2000012
  38.4400010  59.5600033  30.5300021  38.4200025  58.9400005  31.9600010
  41.0100031  51.7400026  32.2000027  40.5800009  51.1900043  33.1800008
  42.3300028  51.5600014  31.9100022  42.7300024  51.8800020  31.0400009
  43.2600021  50.8100033  32.7800012  42.8000021  49.8500013  33.0100012
  44.6300030  50.5900002  32.1300006  44.8699999  51.5100002  31.6000009
  45.7800007  50.2600002  33.1000018  45.5800009  49.3400002  33.6500025
  46.7700005  50.2100039  32.6500010  45.8800030  51.1100006  33.7600017
  44.5000029  49.4900036  31.1100006  44.3700027  48.5400009  31.6300011
  43.7600040  49.7300005  30.3500009  45.7600021  49.2500019  30.1900005
  46.5300035  48.8200045  30.8300018  45.5700016  48.5300016  29.4000006
  46.0800028  50.1800013  29.7300005  43.4200001  51.5700006  34.1100025
  43.6400032  52.8300047  34.1800022  43.2100010  50.8100033  35.2200007
  43.0299997  49.8200035  35.1100016  43.4200001  51.2900019  36.5600014
  43.9300013  52.2600031  36.5300012  41.9900036  51.4900017  37.1900010
  42.0400000  52.1100044  38.0800009  41.4200020  52.0700026  36.4600015
  41.2200022  50.2400017  37.5200009  41.4100027  49.4600010  38.7100029
  42.0400000  49.7600031  39.5400023  40.6500006  48.3700037  38.9800024
  40.7700014  47.8400040  39.9100018  39.7500014  47.8600025  38.0100012
  38.9500022  46.7700005  38.3300018  38.8100028  46.7000008  39.2800021
  39.5300007  48.6000013  36.8200016  38.7800026  48.2300043  36.1300015
  40.3299999  49.7000027  36.5900016  40.1500034  50.3800011  35.7800007
  44.2900038  50.3900003  37.4400020  44.4500017  49.2200041  37.1000028
  44.7500038  50.8300018  38.6600018  44.3900013  51.7200041  38.9700007
  45.4700041  50.0600004  39.6800017  46.0000038  49.2400026  39.1800022
  46.5100002  50.8800030  40.3299999  46.1199999  51.7200041  40.9000015
  46.9400024  50.2300024  41.0900021  47.5700045  51.4000034  39.3500018
  47.9100037  50.6700039  38.6200023  47.0700026  52.2400045  38.8700008
  48.8800001  51.9900036  40.0200033  48.5500002  52.6600027  40.8100033
  49.3300009  51.0500002  40.3700018  49.8800039  52.7200031  39.0400028
  50.0100040  52.0500040  38.1900024  49.5800018  53.7400007  38.8100028
  51.1200047  52.8400040  39.7600007  51.4100027  51.9500017  40.1500034
  51.9400024  53.0800009  39.2200017  50.9900045  53.5000038  40.5200005
  44.6300030  49.4700003  40.7500029  43.7800026  50.1800013  41.2600040
  44.7700024  48.1500006  41.0400009  45.4800034  47.7000046  40.4700041
  44.0300035  47.4300003  42.1000004  42.9700041  47.6700020  42.0800018
  44.0300035  45.9300041  41.7600012  43.1800032  45.5200005  42.3200035
  43.8600016  45.8500004  40.6800032  45.2800035  45.1300001  42.3400021
  46.2500000  45.8200026  42.6400042  45.1999998  43.9400005  42.5900030
  44.5300007  47.7600002  43.4899998  45.4400015  48.6600018  43.5500002
  43.9700031  47.2000027  44.5300007  43.2000017  46.5500021  44.4400024
  44.3000031  47.5000000  45.9300041  44.2799997  48.5900021  46.0300016
  43.3800030  46.9600010  46.9300032  42.3900032  46.9700003  46.4600039
  43.7100029  45.4900026  47.2400045  42.8200006  44.9500036  47.5900030
  44.1600037  45.0500011  46.3500023  44.4099998  45.4700041  48.0800009
  43.3600044  47.7300024  48.1500006  43.1200027  48.6300039  47.9200029
  45.7700014  47.2000027  46.3100004  46.3100004  47.9100037  47.1800041
  46.4700031  46.2100029  45.7400036  46.0200024  45.6400013  45.0500011
  47.8900003  46.0200024  45.8900023  48.1300020  46.1700010  46.9400024
  48.2600021  44.5900011  45.3900003  47.9600000  44.5900011  44.3400002
  49.3400002  44.4500017  45.3500032  47.5700045  43.5200024  46.1900043
  46.4800024  43.5300016  46.1900043  47.7700043  42.5400019  45.7600021
  48.0100012  43.6500025  47.6400042  49.1900015  43.4000015  48.0300045
  47.2000027  44.0700006  48.5000038  48.7300014  47.0300007  45.0800037
  49.8200035  47.4200010  45.4800034  48.2200003  47.4200010  43.9300013
  47.2800016  47.1000004  43.7300014  48.8000011  48.3700037  43.0299997
  48.2500029  49.3100023  43.0900002  49.8600006  48.4600019  43.2600021
  48.8000011  47.9100037  41.5799999  49.2200041  48.6000013  40.6500006
  48.4300041  46.6500044  41.3500023  47.9300022  46.2500000  42.1400023
  48.6000013  45.9900045  40.0200033  49.6500015  46.1100006  39.7400022
  48.5000038  44.5000029  40.2400017  47.4600029  44.2799997  40.4800034
  48.7200022  44.0400028  39.2800021  49.3300009  43.8200045  41.2500000
  50.6800032  44.0900040  41.3300037  51.1800003  44.7800016  40.6800032
  51.4700031  43.3800030  42.3000002  52.5400019  43.4800005  42.3699999
  50.8500004  42.3900032  43.1000042  51.6600037  41.6600037  43.8700008
  52.4700022  42.1099997  44.0900040  49.4900036  42.2100019  43.0800009
  49.0200043  41.4900017  43.7300014  48.7200022  42.9600000  42.1600008
  47.6500034  43.0100012  42.3100042  47.6700020  46.5500021  38.9100027
  46.4800024  46.9200039  39.1100025  48.0800009  46.5700006  37.6100016
  48.9300013  46.1000013  37.3500013  47.2100019  47.1400023  36.5300012
  46.6600037  47.9900026  36.9300008  48.0900002  47.4900007  35.3500009
  48.5600042  46.5700006  35.0200009  47.4700022  47.8000021  34.5100021
  49.1500044  48.6000013  35.5700016  50.4800034  48.3600044  35.2900028
  50.7900047  47.3800039  34.9700022  51.4100027  49.4700003  35.1600027
  52.4000025  49.2200041  34.8200011  50.9300041  50.7600021  35.4100013
  51.7700005  51.8500042  35.2900028  52.6500034  51.5400028  35.5300021
  49.6300030  50.9800005  35.8600020  49.3100023  52.0100021  35.9300017
  48.7200022  49.9000025  35.8900023  47.6800013  50.1000023  36.1000013
  46.2200022  46.1199999  36.1500025  46.4000034  44.9200010  36.1200023
  45.0200033  46.6900015  35.9400010  44.8699999  47.6800013  36.0900021
  43.7100029  45.9500027  35.9400010  43.8300037  44.9200010  35.5900025
  43.2100010  45.9600019  37.4100018  42.9800034  46.9700003  37.7600026
  41.9500017  45.2400017  37.7100015  42.0900011  44.1800022  37.5400019
  41.6100025  45.6000042  38.6900020  41.1400032  45.5400038  37.0400023
  44.1600037  45.3600025  38.2500029  44.9300003  45.9100008  38.4200025
  42.7700043  46.7100000  35.0000024  43.0400038  47.8299999  34.5400023
  41.5500021  46.1800003  34.6700025  41.3800001  45.2400017  35.0100017
  40.5100012  46.8400002  33.8800025  40.2200031  47.7600002  34.3800020
  40.8599997  46.8100023  32.3600006  41.9300032  47.0400000  32.3400021
  40.5700016  45.4600000  31.6700006  39.5200014  45.1999998  31.7000008
  40.8900023  45.3700018  30.6300020  41.1600018  44.7600031  32.2700024
  40.2200031  47.9600000  31.5600014  39.2000008  47.6000023  31.4600015
  40.3500032  48.9000034  32.1000004  40.8700037  48.2900000  30.2300024
  40.6800032  47.5000000  29.5000005  40.4500008  49.2100000  29.8100019
  41.9500017  48.3500004  30.3500009  39.1900015  46.0900021  34.1100025
  39.1600013  44.9800014  34.6100020  38.0500007  46.7400026  33.8100004
  38.1100011  47.7300024  33.6100006  36.7900014  46.1300039  33.7100005
  36.1100006  46.7500019  33.1200027  36.8600011  45.0700045  33.4400010
  36.0800028  46.0900021  35.0600028  36.1700010  47.0000029  35.8500028
  35.6200027  44.8699999  35.3400016  35.5500007  44.2300034  34.5700026
  35.2600026  44.4000006  36.6800022  35.0300026  45.3100014  37.2500014
  33.9200020  43.5700035  36.6200018  34.1400027  42.6900005  36.0200024
  33.4300017  43.1599998  38.0000019  33.3800006  44.0700006  38.5900021
  32.5100017  42.5600004  37.9700017  34.2900014  42.6400042  38.4100008
  32.7200007  44.2900038  35.8900023  32.3000026  45.0600004  36.5500021
  33.0300021  44.6500015  34.9100018  31.5500021  43.2900000  35.5300021
  30.8200026  43.6199999  34.8000026  31.9900012  42.3800039  35.1300025
  30.9500003  43.1200027  36.4200020  36.4900017  43.5600042  37.2900009
  36.3500023  42.3600006  37.5500011  37.6600027  44.1700029  37.5100017
  37.7400017  45.1500034  37.2400022  38.7500024  43.4899998  38.2800007
  39.4700027  44.2900038  38.4600019  38.3800030  43.1400013  39.2500019
  39.5200014  42.3699999  37.5700021  39.9200010  41.4600039  38.2700014
  39.6500015  42.4600029  36.2500024  39.2400026  43.2800007  35.8300018
  40.4600000  41.6200018  35.4300022  40.3700018  40.6000042  35.7900023
  39.9800014  41.6600037  33.9000010  38.9800024  41.2400007  33.8800025
  39.8500013  42.6500034  33.4600019  40.9200001  40.8700037  33.0100012
  40.9100008  39.5100021  32.6600027  42.0700026  39.2700028  31.9300008
  42.3600006  38.3400011  31.4700007  42.8000021  40.4400015  31.8100023
  43.7700033  40.4800034  31.5500021  42.1300030  41.3600016  32.5700021
  42.4800014  42.3500013  32.8400016  41.9099998  42.0900011  35.6300020
  42.3600006  43.0800009  35.0200009  42.6600027  41.4200020  36.4900017
  42.2300005  40.5900002  36.8700027  44.1600037  41.6200018  36.7000008
  44.2300034  42.6400042  37.0800018  44.5600033  40.6700039  37.8700018
  43.9800024  40.8100033  38.7800026  44.4400024  39.6100020  37.6500010
  46.0700035  40.7900000  38.2700014  46.7700005  40.6400013  37.4500012
  46.4800024  42.1200037  38.8000011  45.9000015  42.3100042  39.7100019
  47.5100040  42.0600033  39.1500020  46.3000011  42.9900026  38.1700015
  46.4800024  39.8100019  39.4700027  45.9300041  40.1100016  40.3600025
  46.2300014  38.7900019  39.1800022  47.5600004  39.8300028  39.6300030
  44.9900007  41.4900017  35.4200006  45.1200008  40.3400040  34.9400020
  45.4800034  42.5600004  34.8600006  45.4200029  43.4300041  35.3700018
  46.1500025  42.5600004  33.5700011  45.7000017  41.8000031  32.9400015
  46.1800003  43.8800001  32.8600025  46.6800022  44.6500015  33.4300017
  46.8300009  43.7500000  32.0000005  44.8000002  44.4300032  32.3700023
  44.0400028  44.2000008  33.1100011  44.8699999  45.9400034  32.1800017
  45.7400036  46.2800026  31.6200018  44.0200043  46.3600016  31.6500020
  44.8200035  46.4100027  33.1600022  44.4800043  43.8100004  31.0100007
  44.5200014  42.7300024  31.1500025  43.5000038  44.0400028  30.5800009
  45.1700020  44.0799999  30.2000022  47.6000023  42.1400023  33.7700009
  48.2000017  41.4200020  32.9900026  48.2900000  42.6999998  34.7200012
  47.8900003  43.4300041  35.2900028  49.7000027  42.4000025  35.0400019
  49.9700022  41.3400030  35.0200009  50.6400013  42.9800034  33.9500022
  50.4600000  42.5000000  32.9900026  50.6200027  44.5000029  33.7500024
  50.8300018  44.8800039  34.7600007  51.3000011  44.8100042  32.9600024
  49.6100044  44.7600031  33.4400010  51.9500017  42.5600004  34.3200016
  52.2500038  41.8700027  33.7200022  50.1300001  42.9800034  36.4200020
  49.6700001  44.0200043  36.8500018  51.1300039  42.3600006  37.1300006
  51.4700031  41.5200043  36.6800022  51.8500042  42.7700043  38.3900023
  51.0300016  43.3100033  38.8600016  52.2500038  41.5600014  39.2700028
  52.9800034  40.8700037  38.8600016  52.7600002  41.9900036  40.1400042
  51.0600042  40.7100010  39.7700024  50.2700043  41.3500023  40.1700020
  50.6000042  40.2100039  38.9200020  51.3900042  39.7000027  40.8200026
  52.1900034  39.1000009  40.3700018  51.8600035  40.2400017  41.6400003
  50.2100039  38.8000011  41.2200022  49.5000029  39.4100022  41.7799997
  49.7400045  38.3800030  40.3299999  50.5700016  37.7300024  42.1700001
  50.9100008  38.1100011  43.0299997  49.8100042  37.1600008  42.5100040
  51.2100029  37.0600009  41.7600012  53.1100035  43.6500025  38.1000018
  53.6900043  44.2200041  39.0300012  53.4700012  43.8700008  36.8300009
  53.0600023  43.2900000  36.1100006  54.5800018  44.7399998  36.3900018
  55.4900026  44.4200039  36.9000006  54.9100018  44.4200039  34.9300027
  55.1600027  43.3600044  34.8300028  54.0200043  44.5400000  34.3200016
  55.9900045  45.1400042  34.4700027  56.1400032  44.8800039  33.5600019
  54.2500019  46.2400007  36.5300012  53.0800009  46.6200018  36.3700008
  55.2900028  47.1300030  36.8000007  56.6600037  46.7900038  37.3000026
  57.1800041  46.1900043  36.5500021  56.6600037  46.4200020  38.3200026
  57.3200035  48.0900002  37.3600006  57.6700020  48.4300041  36.3800025
  58.1300020  48.0100012  38.0800009  56.1300039  49.0500021  37.7900028
  56.4700031  50.0700045  37.6100016  55.9300041  48.8900042  38.8500023
  54.9500036  48.5700035  36.9100022  54.0200043  48.8400030  37.4100018
  54.8400021  49.2200041  35.5700016  54.3900013  50.3700018  35.5800009
  55.1700020  48.5500002  34.4500017  55.6000042  47.6400042  34.5400023
  55.1100016  49.1800022  33.0600023  55.5200005  50.1900005  33.0800009
  56.0200024  48.4500027  32.1100020  57.0100021  48.5400009  32.5400019
  55.7200003  47.4000025  32.1700025  56.0100031  49.0700006  30.6900024
  55.8800030  50.3100014  30.5300021  56.1900043  48.2900000  29.6900010
  53.6600018  49.2200041  32.5100017  52.9700041  48.2000017  32.2000027
  53.1500006  50.4600000  32.2700024  53.6600018  51.2700033  32.5900006
  51.8500042  50.6700039  31.6600013  50.9900045  50.2700043  32.1900010
  51.5600014  52.1800041  31.5700006  51.5200043  52.6900005  32.5400019
  52.3500013  52.6600027  30.9900022  50.2100039  52.5600004  30.8900023
  50.1800013  52.1800041  29.8700023  49.0800047  52.0800018  31.7600012
  49.1900015  52.4300003  32.7900004  48.1500006  52.5100040  31.4000010
  49.0800047  51.0000038  31.8500018  50.0800037  54.0700006  30.7500005
  50.9800005  54.5600033  30.3700018  49.2400026  54.3300009  30.1100016
  49.7600031  54.4500017  31.7200017  51.8300009  50.0600004  30.2100015
  50.7700014  49.6200037  29.8200011  52.9400015  50.0200033  29.4600010
  53.7400007  50.4200029  29.9200010  52.9500008  49.5200014  28.0800009
  52.1800041  49.8200035  27.3700023  54.2800045  49.8600006  27.4200010
  55.0900030  49.4200039  28.0000019  54.2800045  49.4400024  26.4100003
  54.3300009  51.3900042  27.4500012  53.4500027  52.0700026  27.0000005
  55.4800034  51.9000006  27.9300022  55.6600046  52.8900003  27.9700017
  56.0800028  51.1900043  28.3400011  52.7900028  47.9800034  28.1700015
  52.0100021  47.5300026  27.3900008  53.2900047  47.2900009  29.2200017
  53.8400030  47.8100014  29.8900008  53.1000042  45.8400011  29.4200015
  53.3900023  45.3700018  28.4800005  54.0400028  45.2200031  30.4900026
  53.9100027  45.7800007  31.4100003  54.0400028  44.1400003  30.5800009
  55.0600004  45.3400040  30.1100016  51.6400003  45.5100012  29.7500014
  51.0700035  44.6800041  29.0700006  50.9600019  46.3900042  30.5900025
  51.5300035  47.0800018  31.0500026  49.5400047  46.3800001  30.8700013
  49.2400026  45.4200029  31.3000011  49.3500042  47.4400043  31.9000006
  49.6800041  48.4500027  31.6700006  48.2900000  47.5800037  32.0500016
  49.8100042  47.1400023  32.8400016  48.7000036  46.6500044  29.6300006
  47.6800013  45.9400034  29.5400023  49.2500019  47.4800014  28.7100005
  50.0000000  48.1200027  28.9200020  48.5100031  47.7000046  27.4800014
  47.4600029  47.5700045  27.7400017  48.8800001  49.0800047  26.8600011
  49.9700022  49.0800047  26.9100022  48.5700035  49.1100025  25.8100009
  48.4300041  50.2800035  27.6600003  47.3800039  50.1700020  27.9200006
  49.0300035  50.2600002  28.5700011  48.5100031  51.6300011  26.9100022
  49.4900036  51.6200018  26.4300013  47.7800035  51.6000032  26.1100006
  48.1800032  52.8700018  27.7700019  47.5800037  52.4800014  28.5900021
  49.0700006  53.4000015  28.1000018  47.3699999  53.8400030  27.0100021
  47.7800035  54.0500021  26.1000013  46.4000034  53.5700035  26.9300008
  47.3600006  54.6700048  27.5800014  48.7700033  46.5300035  26.5100002
  47.9000044  46.2900019  25.6700015  49.8000002  45.7200003  26.6300011
  50.4200029  45.7300043  27.4300003  50.0900030  44.6100044  25.6400013
  49.6900034  44.8699999  24.6600008  51.5900040  44.3200016  25.6900001
  52.0900011  45.2500010  25.4200006  51.7500019  44.0100002  26.7300010
  52.0300007  43.2800007  24.7100019  51.8600035  42.4200010  25.0900006
  49.2600012  43.4400034  26.1500001  48.6400032  42.7100039  25.3700018
  49.2200041  43.1100035  27.4700022  49.6100044  43.8400030  28.0400014
  48.2300043  42.1200037  27.9800010  48.4500027  41.2500000  27.3600006
  48.5700035  41.7500019  29.5200014  48.5300016  42.6500034  30.1300025
  47.8700018  41.0100031  29.9300003  50.0000000  41.2300014  29.8000026
  50.6500006  42.0800018  29.5600009  50.1500034  40.9300041  30.8400011
  50.5000019  40.0600004  28.9800024  49.9400043  38.9600015  29.0700006
  51.5100002  40.2700043  28.2600021  46.7400026  42.4000025  27.7900004
  46.0100031  41.4100027  27.7500010  46.2900019  43.7000036  27.6200008
  46.8500042  44.5300007  27.7800012  44.9400043  44.0500021  27.3200011
  44.1700029  43.5300016  27.9000020  44.6000004  45.5500031  27.5400019
  44.9500036  45.7500029  28.5500002  45.2500010  46.2200022  26.9800019
  43.1900024  46.0800028  27.3900008  42.8100014  45.9800005  26.3700008
  42.2500038  45.3100014  28.2800007  42.4700022  45.6300020  29.3000007
  41.2800026  45.6599998  27.9200006  42.3000002  44.2300034  28.1900024
  43.1800032  47.5600004  27.6900005  43.9800024  48.1000042  27.1900010
  42.2399998  48.0300045  27.4200010  43.4100008  47.6800013  28.7500024
  44.5700026  43.6600018  25.8900023  43.6000013  42.9600000  25.5500007
  45.4000044  44.1400003  24.9900007  46.1300039  44.7600031  25.3000021
  45.3200006  43.9300013  23.5600019  44.3800020  44.3500042  23.1900001
  46.5500021  44.4900036  22.8700018  47.4800014  44.0600014  23.2700014
  46.5000010  44.1200018  21.8500018  46.5799999  46.0100031  22.7400017
  45.6500006  46.6700029  23.2100010  47.4900007  46.6000032  22.1600008
  45.3800011  42.4600029  23.2600021  44.7300005  41.9700003  22.3500013
  46.1400032  41.6499996  23.9100003  46.8700027  42.1099997  24.4200015
  46.1199999  40.1900005  23.9200020  46.0100031  39.8600030  22.8900003
  47.3900032  39.6500015  24.5200014  48.2800007  39.9900007  23.9800000
  47.5200033  39.9800014  25.5500007  47.3100042  38.0800009  24.5300007
  46.6800022  37.8000021  25.3700018  46.8300009  37.7400017  23.6200023
  48.7000036  37.4100018  24.7000003  48.6600018  36.3200021  24.7500014
  49.2600012  37.7500010  23.8300014  49.3900013  37.9500008  25.9600019
  50.3500032  37.4300027  25.8700013  49.5600033  39.0200019  25.8500004
  48.6900043  37.4800014  27.2500014  48.6100006  36.4800024  27.4200010
  49.2400026  37.7900028  28.0400014  47.7500010  37.7300024  27.5200009
  44.8000002  39.7400022  24.5300007  44.3100023  38.7800026  23.9600015
  44.3100023  40.3600025  25.6300020  44.9000025  41.0200024  26.1100006
  43.0800009  39.8100019  26.2200022  43.2700014  38.7500024  26.4200020
  42.7700043  40.4400015  27.6100016  42.4800014  41.4700031  27.4000025
  41.9099998  39.9200010  28.0200005  43.6400032  40.4200029  28.2700014
  41.9000006  39.9500012  25.2500010  41.1100006  39.0500021  25.1200008
  41.7300034  41.1400032  24.6900010  42.4600029  41.8200016  24.8300004
  40.5200005  41.3900042  23.9400005  39.7200012  40.7800007  24.3700004
  40.2600002  42.9100037  24.0400004  41.1700010  43.3600044  23.6500001
  39.1100025  43.4300041  23.1000018  38.1500030  43.2200003  23.5700011
  39.2200017  44.4900036  22.9100013  39.0600014  43.0100012  22.0900011
  40.0200033  43.4200001  25.4700017  41.0200024  43.3300018  25.8900023
  39.7500014  44.4700003  25.4300022  38.9800024  42.7600002  26.3400006
  39.3400025  41.7500019  26.5400004  38.6600018  43.3800030  27.1800017
  38.0700016  42.6600027  25.7400012  40.7200003  40.9500027  22.5200009
  39.7200012  40.5200005  21.8800020  41.9700003  41.0300016  21.9800019
  42.8100014  41.1600018  22.5300002  42.3100042  40.4900026  20.5800009
  43.1599998  39.8200011  20.7000017  41.5300035  39.8900008  20.0999999
  42.3800039  41.6499996  19.5500004  42.3300028  41.3800001  18.4000003
  42.5400019  42.9200029  19.9100006  42.5400019  43.1300020  20.9000015
  42.7700043  44.1000032  19.0700006  43.3500004  43.8400030  18.1800008
  41.4400005  44.7200012  18.7500012  41.6100025  45.5100012  18.0200005
  40.8100033  44.0200043  18.1900012  40.6800032  45.3400040  19.9900007
  40.7200003  44.6800041  20.8500004  41.1800003  46.2300014  20.3800011
  39.2800021  45.7700014  19.7000015  39.3300009  46.6100025  19.0100014
  38.8200021  44.8600006  19.3300009  38.6700010  46.2500000  20.9600019
  37.9400015  45.8200026  21.5000010  38.9000010  47.3500013  21.6000009
  39.5800018  48.3300018  21.0300016  40.0000000  48.2800007  20.1100016
  39.7400022  49.1200018  21.6400003  38.4300017  47.7100039  22.7700019
  37.8700018  47.1000004  23.3500004  38.7600017  48.5500002  23.2200003
  43.6400032  45.1200008  19.8500013  43.5800028  45.1200008  21.0700011
  44.2700005  46.0500002  19.1500008  44.4000006  45.8700037  18.1600010
  44.7800016  47.3200035  19.7400010  45.6000042  47.0800018  20.4299998
  45.4000044  48.1200027  18.6000013  44.6500015  48.4400034  17.8900003
  45.8300018  49.0300035  19.0200007  46.5200043  47.4400043  17.8100014
  46.8300009  46.2400007  17.9100013  46.9400024  48.2400036  16.8100011
  47.5800037  47.9100037  16.1000013  46.6700029  49.2100000  16.9400012
  43.6500025  48.1400013  20.4900002  42.8100014  48.7400007  19.8500013
  43.6900043  48.1300020  21.8200016  44.3900013  47.5600004  22.2700000
  42.6900005  48.8400030  22.6400018  41.7500019  48.9000034  22.1000004
  42.3000002  47.9600000  23.8000011  43.1900024  47.8500032  24.4200015
  41.5000010  48.4600019  24.3500018  41.6400003  46.2500000  23.3700013
  42.5200033  46.1000013  22.3900008  43.1300020  50.2400017  23.1500006
  42.3699999  50.9300041  23.8200021  44.4500017  50.5400038  22.9900002
  44.9900007  49.8600006  22.4800014  45.1999998  51.6300011  23.6600018
  46.2200022  51.2700033  23.6600018  45.2900028  52.8800011  22.7600002
  44.3500042  53.4400034  22.6700020  46.0500002  53.5400009  23.1700015
  45.6800032  52.6500034  21.2700009  44.9500036  53.0400038  20.3200006
  46.9000006  52.3000002  20.9900022  47.1200037  52.2400045  20.0000000
  47.4800014  52.0800018  21.7800021  44.9100018  51.8100023  25.1300001
  45.1600027  52.9800034  25.5700016  44.5600033  50.8200026  25.9500003
  44.5400000  49.8700047  25.6000018  44.2500019  51.0400009  27.3800015
  44.4700003  50.1200008  27.9300022  44.9300003  51.7500019  27.8300023
  42.8000021  51.4200020  27.7000022  42.6000023  51.7800045  28.8300014
  41.8000031  51.2600040  26.7800021  42.0500040  50.8700037  25.8800006
  40.3100014  51.3900042  27.0600009  40.1400042  51.2300014  28.1300020
  39.7500014  52.8000021  26.8500018  39.5900011  52.8800011  25.7800007
  38.3900023  52.9700041  27.5100017  38.3700013  52.9800034  28.6000013
  37.9900026  53.9200020  27.1500015  37.6600027  52.2300005  27.1600008
  40.7500029  53.8500023  27.3300004  41.5799999  53.7700033  26.6300011
  40.2100039  54.8000050  27.3700023  41.1300039  53.6200047  28.3200002
  39.5100021  50.3100014  26.3500023  39.8000026  49.9800014  25.2200007
  38.5000014  49.7800016  26.9500017  38.1600022  50.2000046  27.8000021
  37.6000023  48.7400007  26.4400005  37.6900029  48.5400009  25.3700018
  37.7800012  47.4500036  27.2500014  36.9800019  46.7800045  26.9400024
  39.1200018  46.7800045  26.8100023  39.8700023  47.3600006  27.3500013
  39.1600013  45.7700014  27.2000003  39.2300010  46.7000008  25.7300019
  37.6300025  47.6100016  28.7500024  38.4600019  48.2600021  29.0700006
  36.7200017  48.0900002  29.1200018  37.7500010  46.2500000  29.4500017
  38.7800026  45.9200001  29.5300007  37.4100018  46.4500046  30.4700017
  37.1900010  45.4900026  28.9000010  36.1000013  49.2200041  26.5800023
  35.7800007  50.0300026  27.4300003  35.1600027  48.6200047  25.8600020
  35.4600024  47.9000044  25.2100015  33.7200022  48.7500000  26.1400008
  33.6100006  49.8000002  26.4000010  32.7900004  48.4400034  24.9700022
  31.7700005  48.6800003  25.2900004  33.0900025  49.3000031  23.7000012
  34.1200018  49.1900015  23.3500004  32.4700022  48.8700008  22.9200006
  32.7800012  50.3400040  23.8100004  32.8200006  47.0600033  24.6700001
  32.5100017  47.0400000  23.7700009  33.3400011  47.9700041  27.3400021
  33.9000010  46.9600010  27.7800012  32.1700025  48.3500004  27.8900003
  31.7400026  49.1900015  27.5400019  31.4200020  47.4700022  28.8500023
  32.0100021  47.4200010  29.7700024  30.0600004  48.1300020  29.0800023
  30.1500010  49.2000008  29.2700005  29.5100021  48.1200027  28.1400013
  29.1800022  47.4100018  30.1300025  28.8100004  46.4500046  29.7800016
  29.7900009  47.2800016  31.0300016  27.8800011  48.3000040  30.4800010
  28.1200004  49.3200016  30.7800007  27.3300004  48.5000038  29.5600009
  27.0400023  47.5900030  31.5200019  26.9600010  46.5600014  31.1700010
  27.4700022  47.6800013  32.5200009  25.6200004  48.1000042  31.5600014
  25.0500011  47.3500013  31.9300008  25.5500007  48.9400005  32.1100020
  25.3100014  48.2300043  30.6000018  31.2300014  46.0800028  28.3600020
  31.6300011  45.1500034  29.1100025  30.7300019  45.9100008  27.1200013
  30.3900003  46.7200041  26.6300011  30.6000018  44.5400000  26.6900015
  29.8200011  44.1300011  27.3300004  30.1000023  44.4500017  25.2500010
  30.9200025  44.6900034  24.5700002  29.8500013  43.4000015  25.0700021
  28.8500023  45.2700043  24.8200011  28.3900023  46.0500002  25.6700015
  28.2200003  45.0800037  23.7600017  31.8400025  43.6900043  26.7200017
  31.8000007  42.4500036  26.9000006  32.9900026  44.2799997  26.4600015
  32.9600024  45.2800035  26.3400006  34.3400025  43.6199999  26.5000010
  34.2600012  42.6500034  26.0200024  35.3700018  44.5000029  25.8500004
  35.3800011  45.5200005  26.2500024  36.3200021  44.0300035  26.1100006
  35.1000023  44.5500040  24.3400002  35.4100013  43.6000013  23.9000010
  34.0600014  44.7399998  24.0800023  36.0500026  45.6000042  23.6200023
  36.5600014  46.5600014  24.3000007  36.2100029  45.4200029  22.4000001
  34.7300005  43.2900000  27.9700017  35.1000023  42.1800041  28.2300019
  34.4400024  44.2300034  28.9400005  34.0200019  45.0700045  28.5800004
  34.5200014  44.1000032  30.3900003  35.5500007  43.8000011  30.5900025
  34.0800023  45.4000044  31.0900021  33.0800009  45.6300020  30.7200003
  34.0000010  45.1500034  32.1500015  34.7700024  46.2200022  30.9400010
  33.6800027  42.9500008  30.9200025  34.0900016  42.0900011  31.6900015
  32.5100017  42.7800035  30.4000020  32.1600008  43.4100008  29.6900010
  31.5800023  41.7700005  30.8300018  31.6400003  41.7300034  31.9200015
  30.1100016  42.0900011  30.5200005  29.9900007  42.3100042  29.4600010
  29.6200013  41.1199999  30.5800009  29.5400023  43.2400036  31.3900018
  29.8600006  43.0700016  32.4100018  30.0200009  44.1900015  31.1700010
  27.9800010  43.3600044  31.2500024  27.3400021  42.8100014  30.3200006
  27.4400020  43.9900017  32.1400023  31.9900012  40.3900003  30.3300023
  31.6600013  39.3400025  30.9200025  32.6200008  40.2600002  29.1300011
  32.7800012  41.1400032  28.6700010  33.0400014  38.9200020  28.6100006
  32.3800015  38.0900025  28.8500023  33.3900023  38.9100027  27.1100020
  32.5300026  39.2500019  26.5200019  34.2500019  39.5600009  26.9800019
  33.8000011  37.5300026  26.5900016  34.7500014  37.2600007  27.0600009
  33.0500007  36.8000007  26.9100022  34.1000009  37.4200010  25.0600004
  33.1100011  37.2100019  24.6600008  34.4800019  38.3500028  24.6300006
  35.1100016  36.3000011  24.8900008  36.1000013  36.5700006  25.2500010
  34.7800016  35.4000020  25.4200006  35.1800013  36.0200024  23.4600019
  35.3500009  36.8200016  22.8700018  35.8200026  35.2900028  23.1600022
  34.3100023  35.6700015  23.0900002  34.3200016  38.5600019  29.4600010
  34.4800019  37.4500012  29.9100018  35.1900005  39.5500016  29.8100019
  35.0000024  40.4900026  29.4800019  36.2900019  39.3800020  30.7500005
  36.9000006  38.5800028  30.3500009  37.1900010  40.6300020  31.0500026
  36.5300012  41.4400005  31.3400006  37.8300023  40.5600023  31.9300008
  38.0600023  41.0400009  29.8500013  37.4500012  41.2300014  28.9700007
  38.9300013  42.2500038  30.1200008  39.7200012  41.9500017  30.8000016
  39.5200014  42.3900032  29.2100024  38.3800030  43.1000042  30.5200005
  38.9700007  39.9100018  29.3000007  38.3700013  39.2000008  28.7300014
  39.7700024  40.2600002  28.6500025  39.4200015  39.3900013  30.1400018
  35.8300018  38.9000010  32.1100020  36.4500022  37.9500008  32.6100016
  34.6900010  39.3800020  32.6000023  34.4000006  40.2400017  32.1600008
  34.0900016  38.9100027  33.7800026  34.8800015  38.8800025  34.5300007
  33.0700016  39.9900007  34.1800022  33.5000014  40.9899998  34.1300011
  32.2400022  39.9500012  33.4700012  32.5100017  39.8400021  35.6300020
  33.4800005  39.7100019  36.7200017  34.5300007  39.6900010  36.4600015
  32.9700017  39.7000027  38.0200028  33.6100006  39.5800018  38.8900018
  31.6400003  40.0600004  38.2100010  31.2200022  40.1999998  39.2000008
  30.7800007  40.2900028  37.1300006  29.7300005  40.3200006  37.3500013
  31.2100005  40.1500034  35.8100009  30.5000019  40.1900005  34.9900007
  33.5200024  37.4400020  33.7200022  33.9000010  36.6400027  34.6000028
  32.7700019  37.2100019  32.6500010  32.5100017  38.0000019  32.0700026
  32.2700024  35.8600020  32.4200010  31.8400025  35.4400015  33.3300018
  31.2700009  35.8300018  31.2500024  30.6400013  36.7200017  31.2700009
  31.8500018  35.9200025  30.3300023  30.3100014  34.6700025  31.1700010
  30.0200009  33.9800024  32.1200013  29.6400023  34.4800019  30.0200009
  28.9300013  33.7700009  29.9300003  29.7600007  35.1100016  29.2400002
  33.4100008  34.8300028  32.2400022  33.2500005  33.7200022  32.7800012
  34.5300007  35.1300025  31.5400004  34.5900011  36.0700011  31.1700010
  35.6800008  34.1900015  31.4900017  35.4200006  33.2800007  30.9500003
  36.8000007  34.8000026  30.6500006  37.0100021  35.7900023  31.0700011
  37.7000022  34.2000008  30.8000016  36.3900018  34.6900010  29.1900015
  36.3300014  33.6500025  28.8800025  35.4000020  35.1100016  29.0500021
  37.3300028  35.4500008  28.1900024  37.3500013  35.1800013  27.0100021
  38.2800007  36.2500024  28.6400008  38.9700007  36.6200018  28.0000019
  38.5500026  36.2300014  29.6200013  36.2400007  33.9200020  32.9300022
  36.3800025  32.8100014  33.3100009  36.4100027  34.9600005  33.7000012
  36.1000013  35.8600020  33.3600020  37.1500015  34.9000025  34.9100018
  37.8900027  34.1200018  34.7300005  37.7900028  36.2100029  35.4100013
  37.1100020  37.0300007  35.1700020  37.7900028  36.2400007  36.5000010
  39.2100024  36.6200018  34.9800014  39.8000026  35.9200025  34.0700006
  39.7200012  37.5400019  35.6200027  36.3700008  34.2300010  36.0300016
  36.9000006  33.6000013  36.9600010  35.0000024  34.3100023  35.9400010
  34.5400023  34.8900008  35.2500010  34.2000008  33.7100005  37.0700026
  34.6900010  33.7700009  38.0400014  32.8100014  34.3600011  37.1600008
  32.3700023  34.4100022  36.1700010  31.6900015  33.5600019  37.9400015
  31.8100023  33.5800028  39.0200019  30.7000017  34.0000010  37.8300023
  31.6500020  32.5600004  37.5000024  32.9200006  35.7600021  37.6400018
  33.7800026  36.3400006  37.2800016  32.0300007  36.2900019  37.3200011
  32.9500008  35.7400012  38.7300014  34.1000009  32.2100019  36.7400026
  34.1100025  31.3900018  37.6600027  34.0800023  31.8600011  35.4800010
  34.2400026  32.5900006  34.8000026  34.0600014  30.4600024  34.9600005
  33.3700013  29.7700024  35.4500008  33.7700009  30.5500007  33.4600019
  32.9000020  31.2000012  33.3300018  34.5900011  31.0800004  32.9600024
  33.5000014  29.2000008  32.7800012  32.4000025  29.0600014  32.1600008
  34.2500019  28.2700014  33.0500007  35.4200006  29.8200011  35.3800011
  35.4700017  28.7600017  35.9900022  36.5500021  30.4500008  35.0200009
  36.2900019  31.2700009  34.5000005  37.9800010  30.1300025  35.3500009
  38.2400012  29.1800022  34.8900008  38.7400007  31.3500023  34.7400022
  38.3700013  32.2700024  35.2000022  39.8000026  31.2300014  34.9200010
  38.6500025  31.4200020  33.6600018  38.2500029  29.9900007  36.7900014
  39.0200019  29.1000009  37.0700026  37.7000022  30.8400011  37.6600027
  37.2100019  31.6200018  37.2600007  37.8300023  30.7600021  39.1100025
  38.9000010  30.6900024  39.3000031  37.2700024  31.9800019  39.8800015
  36.2200022  32.1500015  39.6400023  37.2800016  31.6800022  40.9300041
  37.9900026  32.7900004  39.7800016  37.2000027  29.5200014  39.6500015
  37.6500010  28.7700009  40.5000019  36.0600019  29.1300011  38.9700007
  35.8900023  29.5200014  38.0600023  35.2900028  27.9200006  39.2800021
  35.2300024  27.7900004  40.3600025  33.8400006  27.9100013  38.8000011
  33.7200022  28.0800009  37.7300024  33.0400014  26.6500020  39.0000010
  32.9200006  26.4900017  40.0800037  32.0700026  26.7500019  38.5100007
  33.5000014  25.7700014  38.5700011  33.0500007  29.0600014  39.4600010
  32.7600026  28.8000011  40.4800034  33.6500025  29.9500012  39.6600008
  32.1600008  29.3300009  38.9000010  36.0400009  26.6900015  38.7300014
  36.2900019  25.8100009  39.5600009  36.4800024  26.6000009  37.4600029
  36.2800026  27.3700023  36.8400025  37.2800016  25.4500008  36.9600010
  36.7600012  24.5000005  37.1000028  37.6700020  25.5700016  35.4900026
  38.3400011  26.4100003  35.3000021  38.2600021  24.6700001  35.3500009
  36.5300012  25.5600023  34.4500017  36.0300016  26.5300012  34.4500017
  36.9600010  25.2500010  33.5000014  35.4300022  24.5400023  34.8500013
  35.0100017  24.6300006  35.8600020  34.5400023  24.7000003  34.2400026
  35.7600021  23.0700016  34.6400023  36.1800027  22.5600004  35.4000020
  35.3900027  22.3600006  33.6100006  34.9200010  22.9800010  32.5400019
  34.9100018  23.9800000  32.4400020  34.7500014  22.4700022  31.6900015
  35.6200027  21.0500002  33.5700011  35.9400010  20.6599998  34.4400024
  35.1700020  20.5400014  32.8200006  38.5500026  25.3100014  37.8100014
  38.8400030  24.1000009  38.1500030  39.1400027  26.4000010  38.2800007
  38.7500024  27.2800016  37.9600024  40.4200029  26.3100004  38.9800024
  41.1300039  25.7700014  38.3600020  40.7800007  27.3300004  39.1200018
  40.1900005  25.7200003  40.3800011  40.9700012  24.8700023  40.8599997
  39.1800022  26.1000013  41.1400032  38.5900021  26.8200016  40.7600021
  38.7200022  25.4100013  42.3200035  39.5300007  25.4600000  43.0400038
  37.4700022  26.1800003  42.9300022  36.7900014  26.4700007  42.1200037
  36.7200017  25.3400016  43.9400005  37.4000025  24.8800015  44.6700001
  35.8600020  25.8700013  44.3500042  36.2600017  24.5300007  43.3700037
  37.8500009  27.4100018  43.7100029  38.1300020  27.0300007  44.6900034
  38.7400007  27.9000020  43.3100033  36.7200017  28.4800005  43.9300013
  35.9900022  28.0400014  44.6100044  36.9900012  29.4100022  44.4200039
  36.1700010  28.7300014  43.0299997  38.3900023  23.9200020  42.0100021
  38.8700008  23.1000018  42.7800035  37.6900029  23.6100006  40.9000015
  37.3100019  24.3400002  40.3200006  37.3100019  22.2200012  40.6400013
  36.9800019  21.9000006  41.6300011  36.2200022  22.1300006  39.5200014
  36.6100025  22.4200010  38.5400009  35.9400010  21.0900021  39.3700027
  34.9300027  22.8299999  39.9500012  35.1900005  23.8100004  40.3400040
  34.0600014  23.1000018  38.8100028  33.7400007  22.2000003  38.3000016
  33.1100011  23.5800004  39.0800023  34.4800019  23.4700012  37.8800011
  34.1800022  22.0900011  41.0900021  34.6700025  22.1300006  42.0600033
  33.1700015  22.4500012  41.2700033  34.0800023  21.0500002  40.7800007
  38.4500027  21.2800002  40.2300024  38.2100010  20.1200008  40.3400040
  39.6000028  21.7500019  39.8100019  39.6800017  22.7400017  39.6500015
  40.9000015  21.0300016  39.5300007  40.5900002  20.0100017  39.3100023
  41.6200018  21.6200018  38.3600020  41.5600014  22.7000022  38.4900022
  42.6900005  21.4300013  38.4600019  41.0000038  21.3400006  36.9600010
  40.7800007  20.2800012  36.9300008  40.0200033  21.7900014  37.0900011
  41.8100023  21.8700004  35.8000016  42.8500032  21.8900013  36.1200023
  41.7300034  21.1300015  35.0100017  41.3199997  23.1400013  35.3800011
  41.8200016  23.9500022  35.7200027  40.7100010  23.3600020  34.2200017
  40.0300026  22.4700022  33.6400008  39.9600029  21.5600014  34.0800023
  39.5300007  22.6900005  32.7900004  40.6500006  24.6200013  33.7600017
  41.2800026  25.2600002  34.2200017  40.3999996  24.8100019  32.7900004
  41.7400026  20.9700012  40.8300018  42.6700020  20.1200008  40.9400034
  41.3900042  21.7900014  41.9000006  40.5900002  22.4000001  41.8600035
  42.3100042  21.9500017  43.0400038  43.3100033  21.6500020  42.7100039
  42.4200010  23.4700012  43.5100031  42.8700018  24.0000010  42.6700020
  41.5000010  23.9500022  43.8500023  43.3900023  23.6000013  44.6800041
  43.2500029  22.9100013  45.7100010  44.4800043  24.3500018  44.5100021
  44.9300003  24.5700002  45.3800011  44.5000029  24.9000001  43.6600018
  42.0000029  21.0000014  44.1700029  40.8900023  20.9900022  44.6200037
  43.0000019  20.1600003  44.5600033  43.8500023  20.0800014  44.0100002
  42.7400017  19.0900004  45.4700041  41.8800020  18.5400009  45.0700045
  43.9100027  18.0500007  45.4000044  44.7700024  18.5500014  45.8500004
  43.7100029  17.1500003  45.9800005  44.0700006  17.8200006  44.3400002
  42.3800039  19.4800007  46.8800020  41.7200041  18.7400007  47.5600004
  42.7500010  20.7000017  47.3300028  43.2300043  21.2400007  46.6300011
  42.3699999  21.2600017  48.6800003  42.2399998  20.5700016  49.5100021
  43.4100008  22.3000002  49.1800022  43.4899998  23.1900001  48.5600042
  42.9800034  22.6500010  50.1200008  44.8200035  21.7700005  49.2900038
  45.1400042  21.6500020  48.2500029  45.4400015  22.5400019  49.7400045
  44.8699999  20.4500008  50.1400042  44.2500019  20.6599998  51.0100031
  44.4200039  19.6200013  49.6000004  46.3600016  20.0800014  50.5200005
  46.8900013  19.8100007  49.6100044  46.7800045  20.9000015  51.1000013
  46.6200018  18.9200008  51.4200020  46.5100002  19.1200006  52.4000025
  46.1500025  18.1000006  51.0700035  47.5900030  18.6400008  51.4200020
  41.0000038  22.0000005  48.6400032  40.1700020  21.7700005  49.5100021
  40.6800032  22.6900005  47.5000000  41.4000034  22.6900005  46.8000031
  39.5000029  23.5400009  47.3500013  39.2500019  23.9200020  48.3400011
  39.7200012  24.8000002  46.4200020  39.9500012  24.3600011  45.4500008
  38.9100027  25.5100012  46.2600040  41.0900021  25.4800010  46.7800045
  41.8900013  24.7800016  46.5600014  41.3500023  26.6700006  45.8800030
  40.7300043  27.4900007  46.2400007  42.4200010  26.8800020  45.8600044
  41.2100029  26.3200021  44.8500013  41.2500000  25.9100008  48.2700014
  41.3000011  25.0000000  48.8700008  42.2500038  26.2800002  48.5200024
  40.5299997  26.6500020  48.6100006  38.2600021  22.6700020  46.9600010
  37.2100019  22.7700019  47.5100040  38.4100008  21.7600012  45.9800005
  39.3000031  21.6800022  45.5100012  37.2800016  20.8700013  45.5500031
  36.5200019  21.5300012  45.1100016  37.7300024  19.9300015  44.4200039
  38.3200026  20.5000019  43.7000036  38.3400011  19.1400003  44.8400021
  36.4900017  19.3300009  43.6900043  35.7800007  19.0000010  44.4500017
  35.9800029  20.1300001  43.1599998  36.8400025  18.1000006  42.7800035
  37.7000022  18.4300005  42.1900034  37.2500014  17.3100007  43.4100008
  35.7400012  17.7700007  41.7799997  35.4300022  18.6900008  41.2800026
  36.2700009  17.0200002  41.1899996  34.6400023  17.1500003  42.4300003
  34.0400004  17.7200007  43.0100012  33.9300013  16.8300009  41.7900038
  35.0400019  16.4300013  43.0200005  36.5400028  20.0999999  46.7400026
  35.3200006  20.1999998  46.8000031  37.1800017  19.4400012  47.7400017
  38.5500026  19.0000010  47.7600002  39.2100024  19.8700011  47.8000021
  38.8900018  18.5100007  46.8500042  38.7700009  18.2300007  49.0800047
  39.2200017  18.9200008  49.8000002  39.5600009  17.5000012  48.9200020
  37.3800015  17.8400004  49.6300030  37.3500013  18.0700004  50.7000017
  37.2000027  16.8000007  49.3900013  36.4500022  18.7800014  48.7600040
  35.6900024  18.1700003  48.2800007  35.6900024  19.7900009  49.6200037
  34.8100019  19.3800008  50.3800011  36.2300014  21.0500002  49.7100019
  36.9800019  21.4300013  49.1400003  35.4600024  22.0700002  50.5000019
  34.9300027  21.5799999  51.3000011  36.3400006  23.1700015  51.1200047
  36.7800021  23.7300014  50.3000021  35.6600022  24.1600013  52.0200014
  34.9900007  23.6600018  52.7200031  36.3800025  24.8300004  52.5000048
  35.0100017  24.7300005  51.3500023  37.5400019  22.5500011  51.9000006
  37.2000027  21.6900015  52.4700022  38.2200027  22.1300006  51.1500025
  38.0300021  23.2600021  52.5600004  34.3700027  22.7000022  49.7300005
  33.2800007  22.7600002  50.3000021  34.6400023  23.1300020  48.5000038
  35.5400014  22.9700017  48.0900002  33.6100006  23.7200022  47.6800013
  33.2100010  24.5900011  48.2100010  34.2300010  24.1800022  46.3800001
  35.0100017  24.9100018  46.5799999  34.6900010  23.3300018  45.8700037
  33.3400011  24.8300004  45.3900003  33.1800008  26.1800003  45.3299999
  33.6500025  26.8400002  46.0400009  32.5800014  26.7900014  44.2200041
  32.6100016  27.8500009  44.0400028  31.9700027  25.9800005  43.2300043
  31.3500023  26.6200018  42.2000027  30.8800006  25.9900022  41.6600037
  32.0400023  24.6000004  43.3200026  31.6700006  23.9500022  42.5400019
  32.8200006  24.0600014  44.3400002  32.8200006  22.9900002  44.2000008
  32.4400020  22.7700019  47.4800014  31.3100004  23.2200003  47.5300026
  32.7200007  21.5100002  47.1900034  33.6700010  21.2200022  46.9900036
  31.6000009  20.5200005  47.0000029  30.9100008  20.9300017  46.2600040
  32.1600008  19.1400003  46.5900040  32.7600026  18.6900008  47.3699999
  31.3200021  18.4400010  46.6000032  32.7800012  19.1000009  45.1700020
  32.5100017  20.0600004  44.3800020  33.4200025  18.1200004  44.7800016
  30.8000016  20.2800012  48.3400011  29.6200013  19.8700011  48.3100033
  31.3100004  20.5800009  49.5200014  32.2700024  20.8800006  49.5400047
  30.6400013  20.4500008  50.8100033  30.0200009  19.5500004  50.8400011
  31.7200017  20.3600001  51.8500042  31.4800024  19.8000014  52.7500010
  32.4500012  19.6900010  51.4000034  32.3100019  21.6400003  52.2900009
  32.7500010  22.0400000  51.5300035  29.7900009  21.6800022  51.0500002
  28.8700008  21.6100001  51.8500042  30.0200009  22.8600001  50.4100037
  30.5500007  22.8100014  49.5500040  29.3400025  24.1000009  50.7500029
  28.9600015  24.1200018  51.7800045  30.1200008  25.3400016  50.3100014
  30.4600024  25.2600002  49.2800045  29.5300007  26.2400007  50.4600000
  31.4200020  25.5400014  51.1700010  32.0600009  24.6700001  51.0100031
  32.1000004  26.8500018  50.8000040  31.4400005  27.7200007  50.7800007
  32.9100013  27.0100021  51.5000010  32.5800014  26.7400002  49.8300028
  31.0500026  25.6500006  52.6200008  31.7200017  26.3400006  53.1300020
  30.0200009  25.9600019  52.7900028  31.0700011  24.5900011  52.8800011
  27.9300022  24.1500020  50.0500011  27.6900005  23.5000014  49.0600014
  27.0700002  25.0700021  50.4700041  27.3100019  25.5000019  51.3500023
  25.8600020  25.4900002  49.7700024  25.5100012  24.6700001  49.1300011
  24.9600005  25.9900022  50.7900047  24.0300012  26.2800002  50.2900028
  24.7000003  25.0600004  51.2900019  25.5000019  27.2300005  51.5600014
  25.4200006  28.3500004  50.9800005  25.9100008  27.0100021  52.7000046
  26.0600019  26.6000009  48.7700033  27.1100020  27.1500015  48.7300014
  25.2100015  26.8300009  47.7800035  24.3500018  26.3000011  47.7500010
  25.5900002  27.6000023  46.6400003  26.5100002  27.1600008  46.2400007
  24.5100021  27.4800014  45.5700016  23.6400008  28.0400014  45.9200001
  24.8200011  27.8400016  44.5900011  24.3100023  26.4100003  45.5100012
  25.9000015  29.0700006  46.9300032  26.6000009  29.7700024  46.1500025
  25.3900003  29.6100020  48.0200005  24.8100019  29.0700006  48.6400032
  25.7200003  30.9900022  48.5400009  25.6200004  31.6800022  47.7000046
  24.6800017  31.5000010  49.6500015  24.6200013  30.9100008  50.5600023
  24.7800016  32.9900026  49.9900007  25.0800014  33.5300016  49.1000032
  23.8700008  33.3800006  50.4400015  25.5000019  33.1100011  50.8100033
  23.2900000  31.3600016  49.0900040  23.0500007  30.3500009  48.7600040
  22.6300001  31.6400003  49.9200010  23.1000018  32.0300007  48.2600021
  27.1200013  31.0600019  49.1000032  28.0200005  31.8400025  48.7200022
  27.4800014  30.1100016  49.9100018  26.7800021  29.3900013  50.0200033
  28.8500023  29.9500012  50.5000019  29.1100025  30.9600019  50.8200026
  28.8300014  28.9500022  51.6600037  28.2800007  28.1100011  51.2400007
  29.9000025  28.8300014  51.8300009  28.1000018  29.4500017  52.8600025
  28.6100006  30.3500009  53.2200003  27.0400023  29.5800018  52.6500034
  28.3500004  28.4000015  53.9700031  27.8700018  27.4500012  53.7600040
  29.4000006  28.1900024  54.1700029  27.8900003  28.9200020  55.2700043
  28.4300017  29.6000004  55.7700014  26.6600013  28.6700010  55.7500029
  25.7500005  27.9200006  55.1400042  26.0200024  27.5800014  54.2300034
  24.8700023  27.7600002  55.6000042  26.3100004  29.3200016  56.8500042
  27.0000005  29.8100019  57.4000025  25.4700017  29.0000010  57.3000050
  29.8100019  29.5800018  49.3300009  30.9200025  30.0500011  49.2400026
  29.2800021  28.7900019  48.3600044  28.4200025  28.3100009  48.5700035
  30.0300026  28.5200024  47.1700001  30.9600019  28.0900002  47.5500011
  29.4600010  27.4200010  46.2200022  28.4700012  27.8400016  46.0300016
  29.9400020  27.5100017  45.2500010  29.5200014  25.9500003  46.8200016
  30.5200005  25.7500005  47.2000027  28.8900018  25.8300018  47.7000046
  29.2700005  24.7700024  45.8000040  30.1500010  24.6800017  45.1700020
  29.1800022  23.7800002  46.2400007  28.1000018  25.0500011  44.9700022
  28.2200003  25.5300021  44.0900040  26.9600010  24.5100021  45.1100016
  26.4600015  23.9600015  46.2000036  27.0600009  23.7200022  46.9700003
  25.4600000  23.7800002  46.2300014  26.0500002  24.7000003  44.2100000
  26.3300014  25.3400016  43.4899998  25.1100016  24.3300009  44.2200041
  30.3500009  29.8100019  46.4200020  31.5200019  29.9500012  46.0300016
  29.4500017  30.8400011  46.3900042  28.5400009  30.7600021  46.8100023
  29.7100019  32.2000027  45.9000015  30.2400017  32.1700025  44.9500036
  28.3900023  32.9400015  45.7300043  27.7800012  32.7200007  46.6100025
  28.6600018  33.9900017  45.6900024  27.5100017  32.3300004  44.2799997
  26.9500017  31.2500024  44.8500013  30.7100010  32.9800010  46.7700005
  31.5900016  33.6100006  46.2300014  30.7300019  32.9300022  48.0700016
  30.0200009  32.3900008  48.5400009  31.8400025  33.4200025  48.8900042
  31.9600010  34.4900012  48.7300014  31.3600016  33.1200027  50.3100014
  31.2300014  32.0500016  50.4700041  32.0600009  33.4200025  51.0900021
  30.3700018  33.5300016  50.4800034  33.1900024  32.7500010  48.5900021
  34.2400026  33.4000015  48.6700010  33.1000018  31.4500022  48.1800032
  32.2300005  30.9500003  48.2800007  34.2700005  30.6600022  47.8800011
  35.0300026  31.0000014  48.5800028  33.9800024  29.1500020  48.0000019
  34.8900008  28.5800004  47.7900028  33.6400008  28.8800025  49.0000010
  33.2500005  28.8700008  47.2400045  34.8900008  31.0700011  46.5000010
  36.1200023  31.2300014  46.4100027  34.0300012  31.3500023  45.4900026
  33.0700016  31.0400009  45.5700016  34.4500017  31.9200015  44.1900015
  35.2700019  31.3300014  43.7800026  33.3200026  32.0500016  43.0800009
  32.5200009  32.6400018  43.5400009  33.8600016  32.6400018  41.7500019
  34.9100018  32.3900008  41.6000032  33.2900023  32.4500012  40.8400011
  33.9600015  33.7100005  41.9500017  32.8800011  30.6000018  42.8400040
  33.5000014  30.0900006  42.1099997  33.0900025  30.0500011  43.7500000
  31.4600015  30.4600024  42.3600006  31.2700009  31.1600018  41.5500021
  31.3100004  29.5000005  41.8600035  30.7000017  30.6900024  43.1000042
  35.0100017  33.3200026  44.5200014  36.0600019  33.6400008  43.9900017
  34.3300009  34.1700006  45.2800035  33.4900022  33.9200020  45.7700014
  34.7300005  35.5900025  45.4000044  34.6900010  36.0100007  44.3900013
  33.6500025  36.3200021  46.2800026  32.6500010  36.0900021  45.9100008
  33.6900020  36.1000013  47.3400021  33.7500024  37.9000020  46.2400007
  34.8300028  38.4900022  46.1500025  32.6600027  38.6100030  46.2400007
  32.8500009  39.5900011  46.3700008  31.7400026  38.3300018  46.5500021
  36.1800027  35.6400013  45.9200001  37.0400023  36.2700009  45.3000021
  36.5100026  34.8600006  46.9800043  35.9200025  34.1300011  47.3500013
  37.8900027  34.8300028  47.5000000  38.1700015  35.8500028  47.7700043
  37.8000021  34.0600014  48.7700033  36.8500018  34.1900015  49.2900038
  38.0100012  33.0200005  48.5200024  39.0000010  34.5400023  49.6500015
  39.9500012  34.2300010  49.2100000  39.0100026  35.6200027  49.8000002
  39.0900016  33.7300014  50.9500027  38.3800030  32.7700019  51.1800003
  40.0200033  34.0000010  51.8400002  40.1000023  33.5100007  52.7200031
  40.7000017  34.7300005  51.6400003  38.8800025  34.4300008  46.5000010
  40.0100040  34.9300027  46.5000010  38.6200023  33.3700013  45.6800032
  37.6600027  33.0600023  45.7400036  39.5700026  32.9400015  44.6400023
  40.5400038  32.9100013  45.1400042  39.1700029  31.5000010  44.1300011
  38.0900025  31.3800025  44.0900040  39.8300028  31.2300014  42.7900028
  40.9100008  31.3000011  42.9400015  39.5900011  30.2300024  42.4300003
  39.4900012  31.9000006  42.0000029  39.6700025  30.5000019  45.1700020
  39.1500020  30.6000018  46.1300039  39.5700026  29.4800019  44.7800016
  40.7200003  30.7100010  45.3600025  39.7500014  34.0400004  43.5500002
  40.8800030  34.3400025  43.2000017  38.7100029  34.7400022  43.1300020
  37.7700019  34.5200014  43.4200001  38.7900019  35.9100008  42.2399998
  39.1500020  35.3700018  41.3600016  37.4100018  36.4600015  41.9500017
  36.8400025  35.5600023  41.7500019  37.0200014  37.0800018  42.7700043
  37.2800016  37.3000026  40.6500006  36.6900015  36.7600012  39.5000029
  36.2800026  35.7600021  39.4800019  36.4300013  37.5600028  38.3800030
  35.9400010  37.1300006  37.5200009  36.8000007  38.8900018  38.3700013
  36.6100025  39.5000029  37.5000024  37.4600029  39.4300008  39.5000029
  37.7500010  40.4700041  39.4700027  37.6000023  38.6600018  40.6800032
  38.0300021  39.1600013  41.5300035  39.8900008  36.9100022  42.7300024
  40.8800030  37.2500014  42.0700026  39.6200013  37.4600029  43.9000034
  38.7900019  37.0900011  44.3400002  40.4700041  38.4200025  44.6300030
  40.5200005  39.3200016  44.0100002  39.7500014  38.7800026  45.9300041
  38.6800027  38.8500023  45.7300043  39.7800016  37.9700017  46.6600037
  40.4100037  40.0200033  46.5100002  41.4700031  39.8600030  46.7100000
  40.3200006  40.8000040  45.7500029  39.7400022  40.5200005  47.7400017
  38.8700008  39.9600029  48.3600044  40.1400042  41.6600037  48.2000017
  40.0699997  41.7900038  49.2000008  40.7200003  42.2900009  47.6500034
  41.8300009  37.8700018  44.8900032  42.7900028  38.5100007  44.3700027
  42.0100021  36.8200016  45.6800032  41.2300014  36.2500024  45.9900045
  43.4000015  36.4600015  46.1600018  43.9800024  37.3800015  46.2800026
  43.3500004  35.7200027  47.5100040  42.7400017  34.8400021  47.3000002
  44.3600035  35.3900027  47.7200031  42.8200006  36.5500021  48.6400032
  43.4500027  37.4100018  48.8600016  41.7900038  36.9300008  48.6300039
  42.8299999  35.6600022  50.3100014  44.6300030  35.5200028  50.5200005
  44.9000025  34.9200010  51.3900042  45.0400019  35.1000023  49.6000004
  44.9900007  36.5500021  50.5900002  44.1600037  35.7500029  45.0800037
  45.3700018  35.8100009  45.1300001  43.4200001  34.9500012  44.3000031
  42.4200010  35.0000024  44.3300009  43.9400005  33.8700008  43.4400034
  43.2200003  33.7100005  42.6300001  44.8500013  34.1600013  42.9100037
  43.9600039  32.5400019  44.2100000  44.1200018  32.5500011  45.4500008
  43.7200022  31.4300013  43.4800005  43.5700035  31.5700006  42.4900007
  43.8200045  30.1100016  43.9800024  42.9600000  29.7500014  44.5400000
  43.9000034  29.1700006  42.7900028  43.0800009  29.3900013  42.1000004
  44.9000025  29.3000007  42.3900032  43.7100029  27.6900005  43.1000042
  44.0600014  27.4300003  44.1000032  42.6600027  27.3900008  43.1300020
  44.3300009  26.9000006  41.9099998  44.1300011  27.2000003  40.7500029
  44.9000025  25.7900023  42.1900034  45.0600004  29.7700024  44.8100042
  44.8800039  29.2000008  45.9200001  46.2400007  30.2400017  44.4400024
  46.1400032  30.8300018  43.6300039  47.4600029  30.0100017  45.1800013
  47.6200008  28.9500022  45.3800011  48.6900043  30.5000019  44.3900013
  48.7700033  31.5700006  44.5300007  50.0500011  29.8600006  44.8000002
  50.1900005  28.9300013  44.2500019  50.8000040  30.5500007  44.4200039
  50.1800013  29.6900010  45.8700037  48.4900045  30.2400017  43.0100012
  47.8900003  30.9000015  42.6700020  47.4900007  30.7000017  46.5700006
  48.0200005  30.2000022  47.5400019  46.8100023  31.8300009  46.7600012
  46.2200022  32.0600009  45.9700012  46.6500044  32.6000023  48.0100012
  47.6100016  32.7300024  48.4900045  46.3000011  33.6000013  47.7400017
  45.6100035  32.1100020  48.9800024  45.7600021  32.3500013  50.2100039
  44.5900011  31.3900018  48.5700035  44.3600035  31.3800025  47.5900030
  43.5800028  30.7700014  49.4200039  43.5100031  31.3000011  50.3700018
  42.1000004  30.8000016  48.9300013  41.4300013  30.7500005  49.7900009
  41.7300034  32.1900010  48.3900023  40.7400036  32.1700025  47.9300022
  41.7700005  32.9400015  49.1800022  42.4400043  32.4800014  47.6200008
  41.8200016  29.7800016  47.8000021  40.7600021  29.7700024  47.5500011
  42.3500013  30.0800014  46.9000006  41.9300032  28.7300014  48.0600023
  43.9499998  29.3600011  49.8100042  43.3900023  28.9700007  50.8400011
  44.7200012  28.5700011  48.9900017  45.1500034  28.8900018  48.1300020
  44.9600029  27.1700025  49.2300034  43.8900042  26.9400024  49.2700005
  45.6000042  26.6400003  47.9500008  46.4300013  27.2900009  47.6800013
  46.0100031  25.6400013  48.0100012  44.9100018  26.6700006  47.1000004
  45.8800030  26.8900013  50.4400015  45.8900023  25.8400011  50.9700012
  46.5000010  27.9400015  51.0300016  46.5400028  28.8100004  50.5100012
  47.2000027  27.9800010  52.3500013  47.6400042  27.0000005  52.5100040
  48.0300045  28.6900020  52.3100042  46.2700033  28.2600021  53.5600042
  46.8000031  28.1400013  54.7000027  44.9800014  28.6400008  53.4300041
  44.6900034  28.8700008  52.4900007  44.0700006  28.8900018  54.5500040
  44.5700026  29.3100023  55.4200029  42.9900026  29.8900008  54.1800022
  42.6000023  29.7400022  53.1700039  42.1600008  29.7600007  54.8800039
  43.4000015  31.3100004  54.1600037  44.6000004  31.7300010  53.4600019
  45.2500010  31.0400009  52.9400015  44.8400021  33.1300020  53.4700012
  45.6900024  33.5200024  52.9300022  43.8700008  34.0700006  53.8900042
  43.9800024  35.1300025  53.7500048  42.7200031  33.6600018  54.5600033
  42.0000029  34.3600011  54.9500036  42.5200033  32.2600007  54.7200012
  41.5400028  31.9400024  55.0600004  43.5700035  27.5700021  55.2200031
  42.4100018  27.4200010  55.6100035  44.5400000  26.6000009  55.4900026
  45.5100012  26.7600012  55.2500010  44.2600012  25.1900005  55.9100008
  43.7700033  24.6300006  55.1200008  45.6200027  24.4800019  56.1900043
  46.2000036  25.0700021  56.9100046  45.5100012  23.0599999  56.6700029
  44.8300028  22.4600005  56.0600042  46.4800024  22.5900006  56.8300009
  45.1200008  22.9300022  57.6700020  46.2600040  24.5200014  54.9200010
  47.0500040  23.9700007  54.9800014  43.3400011  25.0100017  57.1100044
  42.6400042  24.0300012  57.2300005  43.4500027  25.9400010  58.0700016
  44.0000010  26.7800021  57.9400015  42.5200033  25.9400010  59.2000008
  42.3800039  24.9100018  59.5400047  43.1900024  26.8000007  60.2600050
  43.5500002  27.6800013  59.7300005  42.4700022  27.1700025  60.9900045
  44.2900038  25.9900022  60.9300041  44.1300011  25.2800012  61.8600035
  45.4100037  26.2200022  60.3500032  46.3200045  26.0300016  60.7500029
  45.4100037  26.8300009  59.5400047  41.1899996  26.4500022  58.8100004
  40.1900005  25.7100010  58.9300013  41.0400009  27.6000023  58.1400013
  41.8400002  28.2100010  58.1100035  39.6900010  28.0100012  57.6200008
  39.0900016  28.2000017  58.5100031  39.6800017  29.3700004  56.9000006
  40.4800034  29.4400024  56.1700010  38.7000012  29.5700026  56.4600039
  39.9500012  30.4000020  57.8800011  40.8300018  30.2700019  58.2300043
  38.9700007  27.0300007  56.7000008  37.7900028  26.7900014  56.8600035
  39.7700024  26.3600016  55.8000040  40.7600021  26.5000010  55.6700039
  39.3200016  25.2500010  54.8500013  38.6500025  25.6500006  54.0900040
  40.5299997  24.8400021  54.0200043  41.4200020  24.8500013  54.6400023
  40.3800011  23.8300014  53.6300039  40.8500004  25.7800007  52.8500032
  40.7300043  26.8200016  53.1500006  42.2700024  25.5900002  52.2800016
  42.4100018  24.6000004  51.8400002  42.3600006  26.3300014  51.4900017
  42.9300022  25.9400010  53.0800009  39.8300028  25.5300021  51.7100048
  38.8100028  25.4300022  52.0800018  39.9800014  26.2200022  50.8800030
  40.0500011  24.5300007  51.3200045  38.6500025  24.1000009  55.6800032
  37.5800014  23.6700010  55.3600025  39.3100023  23.6200023  56.7400026
  39.9500012  24.2800021  57.1500015  38.7700009  22.6300001  57.6700020
  38.4600019  21.7500019  57.1000004  39.9000025  22.2100019  58.5900021
  40.7200003  21.8300009  57.9900026  40.2800035  23.0800009  59.1400051
  39.3800020  21.2000012  59.6200037  38.6200023  21.5300012  60.3200006
  38.9800024  20.3400016  59.0800047  40.4900026  20.8000016  60.5700016
  40.2500010  19.9100006  61.1500025  41.4200020  20.5500007  60.0400019
  40.7600021  21.7800021  61.6500044  39.9600029  22.0000005  62.2400045
  41.8700027  22.5000000  61.9100046  41.8400002  23.4300017  62.7800035
  41.0500002  23.5600019  63.4000015  42.6600027  24.0000010  62.9000044
  43.0400038  22.3500013  61.3100052  43.0800009  21.8200016  60.4500008
  43.7600040  23.0200005  61.5400028  37.4800014  23.0900002  58.4100008
  36.5300012  22.3300004  58.4400034  37.4400020  24.3600011  58.8800049
  38.1800008  25.0000000  58.6200047  36.3300014  24.8900008  59.6000051
  36.1100006  24.1500020  60.3800011  36.8900013  26.1700010  60.3500032
  37.4500012  26.8600011  59.7200012  36.0700011  26.7200017  60.8100033
  37.8400016  25.7700014  61.4400005  37.4600029  25.1500010  62.2500038
  38.6400008  25.3300023  60.8400011  38.4700012  27.2800016  62.2700024
  39.8800015  26.5500021  63.1900024  39.4900012  25.6700015  63.7100029
  40.7000017  26.3000011  62.5100040  40.2100039  27.2700024  63.9400053
  35.0800014  25.1100016  58.7600040  33.9900017  24.7300005  59.2100048
  35.2600026  25.5500007  57.4900007  36.2000012  25.6600022  57.1400023
  34.1500020  25.5300021  56.4700031  33.2900023  26.0400009  56.9100046
  34.5000005  26.3500023  55.2300024  35.3800011  25.8400011  54.8400021
  33.7500024  26.2700009  54.4500017  34.7500014  27.8000021  55.5400038
  35.5000019  27.9500008  56.3100004  35.5100012  28.4600019  54.2900038
  34.8900008  28.3800006  53.4000015  35.7900023  29.4900012  54.5300007
  36.4800024  28.0100012  54.1300011  33.5400009  28.6600018  55.8300018
  33.0300021  28.3200002  56.7300034  33.9400005  29.6600008  55.9600019
  32.8400016  28.5200024  55.0000048  33.6600018  24.1200018  56.1900043
  32.4600005  23.9300013  56.2300014  34.5100021  23.1600022  55.9300041
  35.5000019  23.3200002  55.9900045  34.0300012  21.8500018  55.5100012
  33.3300018  21.9500017  54.6800041  35.2400017  21.0900021  54.8500013
  35.4800010  21.6700006  53.9600039  36.0200024  21.0100007  55.6100035
  34.8600006  19.6700013  54.3100023  34.3000007  19.0500009  55.0100040
  34.2600012  19.8700011  53.4200048  36.1000013  18.7800014  53.8900042
  37.2500014  19.2000008  53.7700033  35.8600020  17.5100005  53.5900021
  36.6900015  17.0200002  53.2900047  35.1100016  16.9200003  53.9200020
  33.3300018  21.0600019  56.6200018  32.3600006  20.3900003  56.3600016
  33.7300014  21.2900019  57.8700018  34.4600010  21.9600010  58.0600023
  33.1000018  20.7900000  59.0600014  32.9100013  19.7200012  58.9700031
  34.0800023  21.0200000  60.2600050  34.4100022  22.0600009  60.2300024
  33.5500026  20.8200002  61.1900043  35.2400017  20.0200009  60.1900005
  34.9400020  18.9800012  60.3400040  35.8400011  20.1300001  59.2900038
  36.2500024  20.3000021  61.1800051  36.2600017  21.3499999  61.8000031
  37.0400023  19.3300009  61.5000010  37.7600026  19.4100010  62.2100019
  37.0600009  18.4800005  60.9600019  31.7300010  21.4900017  59.3400049
  31.0600019  21.0900021  60.2700043  31.3900018  22.5800014  58.7200022
  32.0500016  22.8299999  58.0000019  30.2000022  23.3500004  59.0700006
  30.0900006  24.1600013  58.3500051  28.9300013  22.5600004  58.8200045
  28.8300014  21.8500018  59.6400023  28.1100011  23.2600021  58.9700031
  28.8200021  21.9800019  57.4400043  29.4600010  22.6100016  56.8300009
  29.3200016  21.0300016  57.5400019  27.3100019  21.7200017  56.9000006
  26.6700006  21.1500001  57.5700045  26.8100023  22.6500010  56.6700029
  27.5400019  21.0400009  55.5800009  28.2800007  20.2500010  55.6600046
  26.6500020  20.4800010  55.2800035  27.9500008  21.9400001  54.4600010
  28.9100003  22.2400022  54.5600033  28.0400014  21.4900017  53.5600042
  27.3100019  22.7200007  54.3400049  30.2600026  24.2000008  60.4000044
  29.2800021  24.2800021  61.0500050  31.4700007  24.6600008  60.7600021
  32.2500014  24.4800019  60.1600027  31.7700005  25.4100013  61.9900036
  31.0000014  25.2600002  62.7500010  33.1100011  24.8600006  62.6700020
  33.9800024  25.0200009  62.0400047  33.2700014  25.3400016  63.6300039
  32.9800010  23.3500004  62.9400015  32.0100021  23.2100010  63.4200048
  33.0400014  22.7700019  62.0200014  34.1500020  22.8900003  63.8200045
  35.0000024  22.9600000  63.1400013  34.1800022  23.5100007  64.7100019
  33.9600015  21.4800000  64.2200041  33.0800009  21.0300016  64.4200039
  34.8000026  20.9200001  65.0900030  35.9700012  21.4500022  65.4000044
  36.2800026  22.3300004  65.0200033  36.6100025  20.9200001  65.9800053
  34.4200015  19.8300004  65.6800032  33.4600019  19.5200014  65.5800009
  35.1400018  19.4700015  66.2900019  31.8600011  26.9200015  61.6200018
  32.9200006  27.4800014  61.6600037  30.7800007  27.4500012  61.0800028
  29.9300003  26.9000006  61.1400032  30.7400012  28.7600017  60.4400015
  31.4200020  28.7400007  59.5900011  29.3200016  29.0800023  60.0000048
  28.6600018  29.5700026  60.7200050  29.5200014  29.8300004  59.2400026
  28.6300015  27.8800011  59.3200016  27.3300004  27.4900007  59.5800018
  26.7800021  27.7500010  60.4700041  26.9500017  26.5500021  58.6200047
  26.0900021  26.0100007  58.5800028  27.9800010  26.3100004  57.7400017
  28.0400014  25.6000018  56.5600014  27.1200013  25.1100016  56.2900019
  29.1500020  25.5400014  55.7400036  29.1900015  24.8300004  54.9200010
  30.3000021  26.1800003  56.1400032  31.1900020  26.1400008  55.5300045
  30.1900005  27.1200013  57.2000027  31.0300016  27.7600002  57.4400043
  29.0900016  27.1600008  58.1300020  31.2200022  29.9600005  61.3300037
  31.9100022  30.8100009  60.8500051  30.9200025  29.8800015  62.6400042
  30.5700016  29.0000010  62.9900026  31.4600015  30.9100008  63.5200024
  31.4800024  31.8900013  63.0500031  30.5600023  31.0200024  64.7700024
  30.6200004  30.0700021  65.2900028  30.9700012  31.6700006  65.5400038
  29.1700006  31.4900017  64.4000053  28.8700008  32.0400023  63.3100033
  28.2500005  31.3400006  65.2300024  32.9800010  30.8300018  63.8900042
  33.6100006  31.8800020  64.1500044  33.5600019  29.5900011  63.9100027
  32.9900026  28.8200021  63.6000013  34.9800014  29.3100023  64.1100025
  35.3000021  29.9500012  64.9300051  35.1800013  27.8300023  64.5800018
  34.7600007  27.1800017  63.8100052  36.2600017  27.7400017  64.7000027
  34.5200014  27.4600005  65.9200048  34.8500013  28.2800007  66.5600014
  33.4400010  27.4400020  65.8100033  35.0000024  26.0800004  66.3400030
  36.2400007  25.8500004  66.3300037  34.1300011  25.2400017  66.6000032
  35.8500028  29.6500015  62.8800011  37.0000029  30.1100016  63.0600023
  35.3100014  29.4000006  61.6600037  34.4400024  28.8900018  61.7500019
  35.9000015  29.7500014  60.3200006  36.9200015  29.3700004  60.3100014
  35.0100017  28.9800024  59.3000031  33.9700007  29.0400004  59.6100044
  35.0300026  29.3600011  58.2700014  35.3600025  27.9600024  59.1500044
  35.9600019  31.1900020  60.1200008  36.9200015  31.7000008  59.5900011
  34.9100018  31.9000006  60.5200052  34.1400027  31.3600016  60.8900023
  34.8500013  33.3500028  60.3600025  34.7900009  33.6500025  59.3100023
  33.4700012  33.7100005  61.0300016  33.4400010  33.4700012  62.1000051
  33.3500028  34.7800016  60.8700037  32.6500010  33.1800008  60.5600023
  35.9500027  34.0000010  61.1800051  36.3800025  35.0700021  60.7600021
  36.2800026  33.5000014  62.3900032  35.8000016  32.6600027  62.6700020
  37.3600006  33.9900017  63.1900024  37.1400023  35.0200009  63.4500027
  37.5500011  33.2800007  64.4900036  37.3800015  32.2300005  64.2500019
  38.8600016  33.5300016  65.3200054  39.0300012  34.6000028  65.3300047
  38.8100028  33.1900024  66.3500023  39.7300029  33.0600023  64.8700047
  36.3900018  33.7800026  65.3800011  35.4800010  33.4700012  64.8600054
  36.3300014  33.2900023  66.3500023  36.4400029  34.8500013  65.5400038
  38.6900020  33.8500023  62.4000025  39.3500018  34.8800015  62.2200012
  38.9400029  32.6500010  61.9600010  38.3400011  31.9100022  62.2900009
  40.1800013  32.3100019  61.2600040  41.0400009  32.6100016  61.8600035
  40.1400042  30.7500005  61.1500025  39.9200010  30.1900005  62.0600033
  39.4500017  30.3700018  60.4000044  41.5100002  30.3500009  60.7900047
  41.8000031  30.0600004  59.6200037  42.3500013  30.1000023  61.7900038
  43.3000040  30.0800014  61.4600039  42.1600008  30.3300023  62.7600050
  40.3299999  33.0900025  59.9700022  41.4000034  33.5600019  59.6100044
  39.2500019  33.2600021  59.1700029  38.4000015  32.7500010  59.3600035
  39.3000031  34.1000009  58.0400038  40.1200008  33.7000012  57.4500036
  37.9100013  34.0000010  57.3300028  37.1700025  34.3700027  58.0400038
  37.9700017  34.8200011  56.6100025  37.5900006  32.7700019  56.5900040
  37.5200009  31.9100022  57.2500038  36.2200022  32.9300022  55.8900023
  36.1300015  33.8500023  55.3100014  35.9000015  32.1800017  55.1800013
  35.4600024  33.0300021  56.6600037  38.5100007  32.4700022  55.4400015
  39.5400023  32.3300004  55.7700014  38.1100011  31.5900016  54.9400043
  38.4300017  33.3700013  54.8200035  39.7000027  35.5300021  58.3700037
  40.5200005  36.1200023  57.6500034  39.2000008  36.1400008  59.4800043
  38.5000014  35.6500006  60.0200033  39.6700025  37.5300026  59.9400043
  39.6500015  38.1000018  59.0100050  38.7400007  38.1600022  60.9300041
  38.8600016  37.7300024  61.9200039  38.9800024  39.2200017  61.0300016
  37.7200007  37.9300022  60.6400013  41.1500025  37.5600028  60.3700018
  41.7799997  38.6000013  60.1600027  41.7000008  36.4200020  60.7300043
  41.1100006  35.6400013  61.0000038  43.1500006  36.2400007  60.9900045
  43.4300041  37.1500015  61.5200043  43.3700037  35.0500011  61.9700050
  43.0100012  34.1200018  61.5300035  44.4300032  34.8600006  62.1600008
  42.7300024  35.2900028  63.3600044  43.1800032  36.1900020  63.7900019
  41.6499996  35.4500008  63.3200026  42.9400015  34.0700006  64.3200016
  42.5100040  33.2100010  63.7900019  43.9600039  33.7400007  64.5100021
  42.3500013  34.3100023  65.7200050  43.0100012  35.1000023  66.0900021
  41.3500023  34.7200012  65.6400013  42.3699999  33.1700015  66.5400028
  43.2400036  32.6700020  66.4200020  42.3200035  33.4100008  67.5300026
  41.6700029  32.4500012  66.4100027  44.0000010  36.2400007  59.7100019
  44.7900009  35.3700018  59.5500040  43.9700031  37.2600007  58.8400030
  43.3200026  38.0000019  59.0600014  44.6400023  37.2500014  57.4800014
  45.5800009  36.7100024  57.4600029  43.6600018  36.5900016  56.4400005
  44.1500044  36.7100024  55.4700041  43.4800005  35.5600023  56.7300034
  42.4200010  37.2200012  56.1600018  41.7200041  36.7900014  56.6600037
  44.9500036  38.6500025  57.0000029  44.2100000  39.6400023  57.1500015
  46.0200024  38.7600017  56.2200022  46.3900042  37.8800011  55.8900023
  46.3400030  39.9400020  55.4400015  46.5000010  40.7700014  56.1200047
  47.6900005  39.8000026  54.7200012  48.3300018  39.8100019  55.6000042
  47.8400040  38.8300014  54.2500019  48.0300045  40.8599997  53.6800003
  47.1700001  41.0100031  53.0100012  48.1400013  41.7799997  54.2500019
  49.3400002  40.5900002  52.8900003  50.1500034  40.1200008  53.4500027
  49.2600012  39.7900009  52.1500015  49.7400045  41.8100023  52.1000004
  50.4300022  42.4200010  52.5100040  49.2200041  42.2900009  51.0200024
  48.2800007  41.7799997  50.3500032  47.9400015  40.8400011  50.5000019
  47.9800034  42.4000025  49.6200037  49.5400047  43.4700012  50.7200003
  50.2500010  43.9700031  51.2400007  49.2800045  43.7500000  49.7900009
  45.2200031  40.2300024  54.5200014  44.8900032  41.3800001  54.3300009
  44.5500040  39.2100024  53.9500046  44.9400043  38.3000016  54.1500044
  43.2900000  39.4300008  53.1800032  43.4899998  40.0500011  52.3000002
  42.6900005  38.0900025  52.6900005  43.4000015  37.6600027  51.9800043
  42.7800035  37.4800014  53.5900021  41.3600016  38.1500030  52.0400047
  41.1500025  38.7400007  50.8600044  41.8400002  39.2400026  50.2000046
  39.8200011  38.6800027  50.5900002  39.3500018  39.1000009  49.8000002
  39.1300011  37.9300022  51.5200043  37.8000021  37.5900006  51.6500044
  37.0600009  37.8100014  50.8900023  37.4500012  36.8500018  52.7800035
  36.4400029  36.4900017  52.8800011  38.3900023  36.4800024  53.8100004
  37.9400015  35.9600019  54.6400023  39.7100019  37.0200014  53.7300014
  40.3600025  36.9300008  54.5900011  40.0900030  37.7000022  52.5600004
  42.2200012  40.3400040  53.8700008  41.5300035  41.1700010  53.2600021
  42.0500040  40.1100016  55.1800013  42.5400019  39.3500018  55.6100035
  41.1800003  40.9800005  55.9900045  40.3800011  41.2000036  55.2800035
  40.7800007  40.2700043  57.2700024  40.4300022  39.2900014  56.9500017
  41.6000032  39.9200010  57.8800011  39.7400022  40.9300041  58.0600023
  38.3900023  40.8000040  57.5900030  38.2400012  40.0400019  56.8400049
  37.3900008  41.5900040  58.1600046  36.3800025  41.5700006  57.7700043
  37.7500010  42.4900007  59.1200018  36.7600012  43.2200003  59.6200037
  37.0400023  44.0700006  59.9500036  38.9900017  42.6200008  59.6000051
  39.2300010  43.3100033  60.3900051  40.0400019  41.7900038  59.1200018
  41.0800028  41.8600035  59.4100046  41.8100023  42.3699999  56.1900043
  41.2000036  43.3900023  55.9500027  43.0400038  42.4500036  56.6400003
  43.4800005  41.5500021  56.8200016  43.7300014  43.7000036  57.0300007
  42.9900026  44.2600012  57.6000023  45.0000000  43.3600044  57.8600025
  45.5300045  42.5500011  57.3500013  45.6800032  44.2100000  57.9500008
  44.7399998  42.9000044  59.2800045  45.3100014  41.9099998  59.7200012
  43.9400005  43.5800028  60.0500011  43.8700008  43.2100010  60.9900045
  43.7200022  44.5300007  59.7900009  44.0300035  44.6200037  55.9200048
  44.2900038  45.7900000  56.2400007  43.9200020  44.1800022  54.6300030
  43.8500023  43.1800032  54.4700003  44.0900040  45.0500011  53.4500027
  44.5200014  46.0300016  53.6700010  45.0000000  44.2799997  52.4100018
  44.6300030  43.3100033  52.0700026  45.1999998  44.9300003  51.5600014
  46.4200020  44.0700006  53.0300045  46.2100029  43.4500027  53.9100027
  47.0700026  43.6199999  52.2800016  47.1400023  45.3299999  53.4400034
  47.4800014  45.5700016  54.5300007  47.4500036  46.2800026  52.5600004
  47.8700018  47.0900011  53.0000019  47.3500013  46.2700033  51.5600014
  42.7900028  45.4200029  52.7900028  42.7300024  46.5400028  52.2900009
  41.8200016  44.5200014  52.8200006  41.9900036  43.6600018  53.3200026
  40.4400015  44.8400021  52.3900032  40.4700041  45.9100008  52.1900034
  40.1800013  44.1500044  51.0000038  39.1100025  44.3500042  50.9000015
  40.9500027  44.6400023  49.8700047  40.6200027  44.2100000  48.9300013
  40.7500029  45.7100010  49.8200035  42.0300007  44.5000029  50.0000000
  40.4900026  42.7400017  51.0100031  40.6800032  42.3800039  51.8800020
  39.3200016  44.6100044  53.3900023  38.5100007  43.6800003  53.2500029
  39.3600011  45.2400017  54.5600033  40.2600002  46.3700008  54.9100018
  40.0300026  47.1700001  54.2200041  41.2800026  46.0000038  55.0400019
  39.6600008  46.8200016  56.2800026  38.8100028  47.5000000  56.2100029
  40.4300022  47.2800016  56.9000006  39.1200018  45.5900002  56.8800020
  38.4100008  45.7600021  57.6900005  39.9500012  45.0100040  57.2700024
  38.5400009  44.8200035  55.6500006  38.7200022  43.7500000  55.7500029
  37.0500016  45.0500011  55.4400015  36.3200021  44.2900038  55.9800005
  36.6700006  46.0200024  54.6100044  37.3300028  46.5500021  54.0500021
  35.2300024  46.1300039  54.2700005  34.6400023  46.0600042  55.1900005
  35.0100017  47.4400043  53.5900021  35.6500006  47.4300003  52.7100039
  34.0300012  47.5300026  53.1200027  35.3500009  48.7300014  54.4000006
  35.8300018  48.7200022  55.5700016  35.2000022  49.8300028  53.7200022
  34.7500014  44.9500036  53.3400011  33.8600016  44.1800022  53.6400032
  35.4500008  44.7800016  52.1600008  36.2600017  45.3500032  51.9600010
  35.2000022  43.5900021  51.2800026  34.2000008  43.6800003  50.8600044
  36.1100006  43.6800003  50.0000000  35.9000015  44.5900011  49.4300032
  37.1500015  43.7100029  50.3200006  36.0200024  42.3600006  49.1400003
  36.6300011  41.5600014  49.5700026  35.0100017  41.9700003  49.0500021
  36.6800022  42.4900007  47.8100014  36.1800027  43.3400011  47.3400021
  37.7400017  42.7100039  47.8100014  36.5200019  41.3199997  46.9099998
  35.8700013  40.5800009  47.1400023  37.1000028  41.2400007  45.7200003
  38.0800009  42.0200014  45.3299999  38.5100007  42.5400019  46.0800028
  38.4700012  42.0000029  44.4000006  36.7500019  40.3900003  44.7900009
  36.0400009  39.6800017  44.9300003  37.2400022  40.5600023  43.9200020
  35.2400017  42.2300005  51.9600010  34.2600012  41.5000010  51.9900036
  36.3500023  42.0300007  52.7300024  37.0800018  42.7200031  52.7400017
  36.5600014  40.8100033  53.5000038  36.5800023  40.0200033  52.7400017
  37.9300022  40.8900023  54.2800045  37.8700018  41.7200041  54.9900007
  38.1000018  39.9100018  54.7300005  38.7100029  41.0200024  53.5300016
  35.4300022  40.5500031  54.4700003  34.9300027  39.4400024  54.5500040
  34.9200010  41.5600014  55.2100039  35.3800011  42.4400043  55.0400019
  33.8400006  41.4499998  56.2300014  34.2300010  40.7100010  56.9300032
  33.6700010  42.7900028  56.9800043  34.6100020  43.0800009  57.4600029
  33.3800006  43.6300039  56.3500023  32.6600027  42.6300001  58.0900049
  31.7200017  42.2200012  57.7300024  32.9600024  41.8700027  58.8100004
  32.3300004  44.0000010  58.7700033  32.0200014  44.7900009  58.0900049
  31.4100003  43.8900042  59.3400049  33.5100007  44.6100044  59.5900011
  33.9400005  43.9600039  60.3500032  34.2900014  44.7700024  58.8500023
  33.1000018  45.8800030  60.2400017  32.1600008  45.8100033  60.6200027
  33.6900020  46.0900021  61.0300016  33.1200027  46.6200018  59.5500040
  32.5200009  40.8200026  55.6300020  31.8400025  39.9800014  56.2100029
  32.2400022  41.3800001  54.4000006  32.8300023  42.1500015  54.1200018
  31.0700011  41.0000038  53.6000013  30.1600003  41.1400032  54.1900015
  30.8200026  41.8900013  52.3600006  31.6300011  41.9200039  51.6300011
  29.9700022  41.4400005  51.8700027  30.5000019  43.3600044  52.6600027
  29.6200013  43.3200026  53.3000040  31.2900019  43.8900042  53.2000017
  30.1100016  44.0500021  51.3400030  29.3100023  43.4600019  50.9000015
  29.8300004  45.0700045  51.5900040  31.1700010  44.0300035  50.2900028
  31.1600018  43.4300041  49.4800043  32.0700026  45.0100040  50.2000046
  32.2800016  45.8500004  51.1100006  31.8300009  45.8200026  52.0100021
  32.9100013  46.5799999  50.8200026  32.6300025  45.1999998  49.0800047
  32.4300027  44.6400023  48.2700014  33.0500007  46.1100006  48.9100027
  31.1900020  39.6100020  53.1100035  30.2700019  38.7600017  53.2200003
  32.3900008  39.2500019  52.6100016  33.0500007  40.0100040  52.5100040
  32.6700020  37.8700018  52.1300030  31.7600012  37.6400018  51.5700006
  33.9600015  37.7700019  51.3100004  34.8100019  38.2500029  51.8100023
  34.3100023  36.3100028  51.1100006  33.6200023  35.8300018  50.4100037
  35.2900028  36.2600017  50.6300020  34.3400025  35.7800007  52.0600033
  33.7500024  38.4100008  49.9300003  33.3300018  39.4100022  49.9900007
  34.7100019  38.5400009  49.4400024  32.9600024  37.8300023  49.4600010
  32.5500011  36.9400024  53.3400011  31.8400025  35.9400010  53.3500004
  33.1900024  37.2300029  54.4700003  33.8200021  38.0200028  54.4800043
  33.2200027  36.4000010  55.6600046  33.5100007  35.3600025  55.4800034
  34.1900015  36.9900012  56.7500019  34.0100026  38.0600023  56.7900038
  33.9700007  36.3700008  58.1500006  34.0400004  35.2900028  58.1100035
  34.7000027  36.7100024  58.8900042  32.9800010  36.5400028  58.5700035
  35.6900024  36.7700028  56.3200045  35.9200025  35.7000017  56.3700008
  35.8300018  37.0800018  55.2800035  36.6900015  37.5300026  57.2400045
  36.7400026  36.9200015  58.1500006  37.7000022  37.5900006  56.8400049
  36.3000011  38.4900022  57.5800037  31.8000007  36.2000012  56.3200045
  31.5000010  35.1200008  56.7500019  30.9400010  37.2300029  56.2800026
  31.3300014  38.0700016  55.8900023  29.5400023  37.1200013  56.6200018
  29.4300008  36.9000006  57.6900005  28.8300014  38.4500027  56.5300035
  28.9900017  38.9200020  55.5500031  27.3700023  38.3600020  56.7900038
  26.9700003  39.3400025  57.0000029  26.9300008  37.8100014  55.9600019
  27.2500014  37.7400017  57.6800013  29.4300008  39.3800020  57.4400043
  30.3400016  39.5200014  57.1600008  28.7500024  36.0900021  55.7100010
  28.0500007  35.2700019  56.1800003  29.1000009  36.1500025  54.4200039
  29.8200011  36.8200016  54.1800022  28.5200024  35.3200006  53.4000015
  27.4400020  35.4200006  53.4600019  28.8300014  35.7500029  52.0000029
  29.8300004  35.5200028  51.6300011  27.9300022  35.0500011  51.0300016
  27.8600001  34.0000010  51.3300037  26.9300008  35.4900026  51.1100006
  28.3100009  35.0200009  50.0100040  28.5600019  37.1200013  51.7400026
  29.2200017  37.5300026  52.3200035  28.9500022  33.8400006  53.6900043
  28.1500006  32.9700017  53.4700012  30.2100015  33.5600019  54.0800047
  30.8500004  34.2900014  54.3500042  30.6100011  32.2900009  54.7100019
  30.3500009  31.4700007  54.0400028  32.0600009  32.0800018  54.9200010
  32.4800014  32.8700018  55.5400038  32.1500015  31.1300015  55.4600048
  32.9200006  31.8600011  53.6700010  33.9900017  32.6600027  53.3200026
  34.2000008  33.5800028  53.8300037  34.8300028  32.3700023  52.2100019
  35.7000017  32.9400015  51.9400024  34.6500015  31.1600018  51.5300035
  35.2800012  30.9300017  50.6900024  33.5100007  30.3700018  51.7400026
  33.3900023  29.4300008  51.2400007  32.7300024  30.6600022  52.8800011
  31.8800020  30.0800014  53.2000017  29.9500012  31.9300008  56.0500050
  29.7700024  30.7400012  56.1900043  29.7300005  32.9000020  56.9500017
  29.9700022  33.8500023  56.6800022  29.1400003  32.6700020  58.2400036
  29.6400023  31.7900014  58.6700010  29.4200015  33.8600016  59.1600037
  30.4700017  34.1500020  59.0900040  28.7400007  34.6600008  58.8600016
  29.2100024  33.5300016  60.6400013  28.1800008  33.2100010  60.7900047
  29.8000026  32.6900005  60.9900045  29.4700003  34.7400022  61.5700006
  29.1100025  34.5000005  62.5700045  30.5400014  34.9300027  61.5300035
  28.6900020  35.8900023  61.0600042  27.6900005  35.8200026  61.0300016
  29.2300010  36.9800019  60.5200052  30.4900026  37.1200013  60.3300047
  31.1300015  36.4900017  60.8000040  30.8200026  37.9300022  59.8300028
  28.4000015  37.9100013  60.1100016  27.4300003  37.7900028  60.3600025
  28.7500024  38.7800026  59.7400045  27.6300025  32.3700023  58.3600044
  27.2600007  31.3900018  58.9600039  26.8100023  33.2200027  57.6400042
  27.2100019  34.0700006  57.2700024  25.3100014  33.1800008  57.6600027
  25.0500011  32.9000020  58.6800051  24.6800017  34.5800018  57.3800039
  23.6400008  34.2900014  57.5300026  25.0500011  35.6300020  58.3400011
  24.7000003  36.5300012  57.8300047  24.6300006  35.4000020  59.3100023
  26.1300015  35.7200027  58.4700012  24.9900007  34.9200010  56.0700035
  24.3900013  35.5800009  55.6900024  24.6200013  32.2400022  56.7000008
  23.5700011  31.6800022  56.9100046  25.3500009  32.0100021  55.5800009
  26.2300014  32.5000024  55.5700016  24.9400020  31.3800025  54.3400049
  25.8500004  31.3500023  53.7400007  24.5700002  30.3900003  54.6200037
  23.8800001  32.1800017  53.6100006  23.0800009  31.5700006  52.8600025
  23.7200022  33.4700012  53.8300037  24.3100023  33.8700008  54.5400047
  22.8000021  34.4300008  53.2400036  22.0300007  33.9700007  52.6200008
  21.9600010  35.1100016  54.3400049  21.2600017  35.6900024  53.7400007
  21.1199999  34.0900016  55.0800037  21.7000008  33.4800005  55.7800007
  20.3200006  34.6100020  55.6200027  20.5700016  33.4100008  54.4200039
  22.7400017  35.9700012  55.2700043  22.1800017  36.6200018  55.6900024
  23.4400010  35.5800009  52.5100040  24.6600008  35.8800006  52.7200031
  22.6200008  36.3000011  51.7400026  21.6700006  35.9500027  51.7600012
  23.0800009  37.4300027  50.9000015  24.1000009  37.1200013  50.6600046
  22.2200012  37.6000023  49.6800041  21.1500001  37.6300025  49.9300003
  22.2200012  38.6100030  49.2800045  22.4400020  36.5500021  48.6800003
  21.5300012  35.6200027  48.3200026  20.5200005  35.5100012  48.6900043
  22.1500015  34.6500015  47.5200033  21.8099999  33.7200022  47.3000002
  23.4400010  34.9100018  47.2400045  24.3500018  34.2800021  46.5100002
  24.1700006  33.2800007  46.1500025  25.5200005  34.8800015  46.1199999
  26.1200023  34.4100022  45.3500032  25.8300018  36.1800027  46.7100000
  26.7100024  36.7600012  46.4800024  24.9200010  36.7100024  47.6800013
  25.0300002  37.6900029  48.1400013  23.6300015  36.0900021  47.9000044
  23.1400013  38.7400007  51.7200041  23.1200004  39.8600030  51.1400032
  23.0800009  38.7100029  53.0600023  23.1400013  37.8300023  53.5500002
  22.6800013  39.8500013  53.8400030  21.6900015  40.1300001  53.4700012
  22.4600005  39.4800019  55.2600050  23.3200002  38.9100027  55.6200027
  22.4200010  40.4200029  55.8100033  21.1700010  38.7100029  55.5700016
  20.0900006  39.0800023  55.1800013  21.2100005  37.7900028  56.4500046
  23.6600018  41.0600042  53.7500048  23.2200003  42.1800041  54.0100002
  24.9300003  40.7100010  53.6400032  25.1400018  39.7300029  53.5300016
  25.9800005  41.6499996  53.3200026  25.7800007  42.5500011  53.8900042
  27.3100019  41.0400009  53.7600040  27.3100019  40.7400036  54.8100042
  27.5300002  40.2200031  53.0800009  28.1100011  41.7799997  53.7400007
  25.8700013  42.2900009  51.8200016  26.7000008  43.1800032  51.4800024
  24.9400020  41.8400002  50.9400034  24.2800021  41.1600018  51.3000011
  24.8600006  42.2200012  49.5900011  25.4700017  43.0800009  49.3300009
  25.3900003  41.0300016  48.8500023  24.8600006  40.1200008  49.1200018
  25.2400017  41.3100004  47.8100014  26.9100022  40.8599997  48.9200020
  27.5800014  40.0000000  49.8600006  27.0100021  39.3400025  50.5000019
  28.9400005  39.9700022  49.9400043  29.4400024  39.3400025  50.6600046
  29.7500014  40.6500006  49.0200043  31.0900021  40.4600000  49.0900040
  31.4700007  40.8599997  48.3000040  29.1200018  41.5100002  48.0900002
  29.7700024  42.0600033  47.4200010  27.7400017  41.6200018  47.9500008
  27.3700023  42.2500038  47.1500015  23.4600019  42.5900030  49.0400028
  23.3400011  43.3600044  48.0700016  22.3699999  42.1300030  49.7200012
  22.5300002  41.5100002  50.5000019  20.9700012  42.3300028  49.3200016
  20.9400010  41.9600010  48.2900000  19.9400008  41.5400028  50.1400042
  19.0700006  41.3600016  49.5200014  20.4299998  40.5900002  50.3800011
  19.5000005  42.1400023  51.4400005  20.3299999  42.3400021  52.1200037
  18.8900006  43.0200005  51.2600040  18.5700011  41.1000013  52.1400023
  17.8200006  40.8300018  51.4000034  19.1700006  40.2100039  52.3000002
  18.1300008  41.5799999  53.4900045  19.0600014  42.0300007  53.8400030
  17.3800004  42.3500013  53.3500004  17.7800012  40.4500008  54.3700027
  18.6000013  39.8500013  54.3900013  17.5900006  40.9200001  55.2400017
  16.9100010  40.0500011  54.0500021  20.4500008  43.8200045  49.1000032
  19.6300006  43.9900017  48.1900024  20.8800006  44.9300003  49.8000002
  20.5800009  45.8200026  49.4400024  21.7400002  44.9200010  51.0000038
  21.9000006  43.8900042  51.3200045  23.0599999  45.6500006  50.7100010
  23.3200002  45.9700012  51.7200041  23.8200021  44.9700022  50.3300047
  22.9300022  46.8900013  49.8300028  22.0000005  47.7200031  49.8900032
  23.8900018  47.1400023  48.9900017  23.9000010  47.9700041  48.4100008
  24.7600007  46.6200018  49.0600014  20.8800006  45.5700016  52.1200037
  19.9800014  46.3800001  51.9400024  21.3499999  45.4500008  53.3700037
  22.1100020  44.8000002  53.4900045  20.6700015  45.9700012  54.5700026
  21.0000014  45.4400015  55.4700041  20.7900000  47.0300007  54.8100042
  19.6100008  45.8400011  54.3600035
