%VERSION  VERSION_STAMP = V0001.000  DATE = 08/18/26  18:05:54
%FLAG TITLE
%FORMAT(20a4)

%FLAG POINTERS
%FORMAT(10I8)
      22      39      12      10      25      12      40      16       0       0
     107       1      10      12      16       7      10       8       1       0
       0       0       0       0       0       0       0       0      22       0
       0
%FLAG ATOM_NAME
%FORMAT(20a4)
O1  H12 C5  C4  H6  C3  H5  C2  H4  C6  H7  C7  C8  H8  H9  C9  H10 H11 C1  H1  
H2  H3  
%FLAG CHARGE
%FORMAT(5E16.8)
 -9.07652763E+00  7.59869910E+00  2.24316513E+00 -3.84490530E+00  2.40534360E+00
 -1.74934080E+00  2.40534360E+00 -2.95201260E+00  2.42356590E+00 -1.78578540E+00
  2.44178820E+00 -1.80947439E+00 -4.93824330E-01  9.32981760E-01  9.32981760E-01
 -1.39218372E+00  8.23647960E-01  8.23647960E-01 -1.67827383E+00  5.83714936E-01
  5.83714936E-01  5.83714936E-01
%FLAG ATOMIC_NUMBER
%FORMAT(10I8)
       8       1       6       6       1       6       1       6       1       6
       1       6       6       1       1       6       1       1       6       1
       1       1
%FLAG MASS
%FORMAT(5E16.8)
  1.60000000E+01  1.00800000E+00  1.20100000E+01  1.20100000E+01  1.00800000E+00
  1.20100000E+01  1.00800000E+00  1.20100000E+01  1.00800000E+00  1.20100000E+01
  1.00800000E+00  1.20100000E+01  1.20100000E+01  1.00800000E+00  1.00800000E+00
  1.20100000E+01  1.00800000E+00  1.00800000E+00  1.20100000E+01  1.00800000E+00
  1.00800000E+00  1.00800000E+00
%FLAG ATOM_TYPE_INDEX
%FORMAT(10I8)
      34      35      36      36      37      36      37      36      37      36
      37      36      38      39      39      38      39      39      38      39
      39      39
%FLAG NUMBER_EXCLUDED_ATOMS
%FORMAT(10I8)
       8       3      12       8       4       6       3       5       3       6
       2       7       9       5       4       6       5       4       3       2
       1       1
%FLAG NONBONDED_PARM_INDEX
%FORMAT(10I8)
       1       2       4       7      11      16      22      29      37      46
      56      67      79      92     106     121     137     154     172     191
     211     232     254     277     301     326     352     379     407     436
     466     497     529     562     596     631     667     704     742       2
       3       5       8      12      17      23      30      38      47      57
      68      80      93     107     122     138     155     173     192     212
     233     255     278     302     327     353     380     408     437     467
     498     530     563     597     632     668     705     743       4       5
       6       9      13      18      24      31      39      48      58      69
      81      94     108     123     139     156     174     193     213     234
     256     279     303     328     354     381     409     438     468     499
     531     564     598     633     669     706     744       7       8       9
      10      14      19      25      32      40      49      59      70      82
      95     109     124     140     157     175     194     214     235     257
     280     304     329     355     382     410     439     469     500     532
     565     599     634     670     707     745      11      12      13      14
      15      20      26      33      41      50      60      71      83      96
     110     125     141     158     176     195     215     236     258     281
     305     330     356     383     411     440     470     501     533     566
     600     635     671     708     746      16      17      18      19      20
      21      27      34      42      51      61      72      84      97     111
     126     142     159     177     196     216     237     259     282     306
     331     357     384     412     441     471     502     534     567     601
     636     672     709     747      22      23      24      25      26      27
      28      35      43      52      62      73      85      98     112     127
     143     160     178     197     217     238     260     283     307     332
     358     385     413     442     472     503     535     568     602     637
     673     710     748      29      30      31      32      33      34      35
      36      44      53      63      74      86      99     113     128     144
     161     179     198     218     239     261     284     308     333     359
     386     414     443     473     504     536     569     603     638     674
     711     749      37      38      39      40      41      42      43      44
      45      54      64      75      87     100     114     129     145     162
     180     199     219     240     262     285     309     334     360     387
     415     444     474     505     537     570     604     639     675     712
     750      46      47      48      49      50      51      52      53      54
      55      65      76      88     101     115     130     146     163     181
     200     220     241     263     286     310     335     361     388     416
     445     475     506     538     571     605     640     676     713     751
      56      57      58      59      60      61      62      63      64      65
      66      77      89     102     116     131     147     164     182     201
     221     242     264     287     311     336     362     389     417     446
     476     507     539     572     606     641     677     714     752      67
      68      69      70      71      72      73      74      75      76      77
      78      90     103     117     132     148     165     183     202     222
     243     265     288     312     337     363     390     418     447     477
     508     540     573     607     642     678     715     753      79      80
      81      82      83      84      85      86      87      88      89      90
      91     104     118     133     149     166     184     203     223     244
     266     289     313     338     364     391     419     448     478     509
     541     574     608     643     679     716     754      92      93      94
      95      96      97      98      99     100     101     102     103     104
     105     119     134     150     167     185     204     224     245     267
     290     314     339     365     392     420     449     479     510     542
     575     609     644     680     717     755     106     107     108     109
     110     111     112     113     114     115     116     117     118     119
     120     135     151     168     186     205     225     246     268     291
     315     340     366     393     421     450     480     511     543     576
     610     645     681     718     756     121     122     123     124     125
     126     127     128     129     130     131     132     133     134     135
     136     152     169     187     206     226     247     269     292     316
     341     367     394     422     451     481     512     544     577     611
     646     682     719     757     137     138     139     140     141     142
     143     144     145     146     147     148     149     150     151     152
     153     170     188     207     227     248     270     293     317     342
     368     395     423     452     482     513     545     578     612     647
     683     720     758     154     155     156     157     158     159     160
     161     162     163     164     165     166     167     168     169     170
     171     189     208     228     249     271     294     318     343     369
     396     424     453     483     514     546     579     613     648     684
     721     759     172     173     174     175     176     177     178     179
     180     181     182     183     184     185     186     187     188     189
     190     209     229     250     272     295     319     344     370     397
     425     454     484     515     547     580     614     649     685     722
     760     191     192     193     194     195     196     197     198     199
     200     201     202     203     204     205     206     207     208     209
     210     230     251     273     296     320     345     371     398     426
     455     485     516     548     581     615     650     686     723     761
     211     212     213     214     215     216     217     218     219     220
     221     222     223     224     225     226     227     228     229     230
     231     252     274     297     321     346     372     399     427     456
     486     517     549     582     616     651     687     724     762     232
     233     234     235     236     237     238     239     240     241     242
     243     244     245     246     247     248     249     250     251     252
     253     275     298     322     347     373     400     428     457     487
     518     550     583     617     652     688     725     763     254     255
     256     257     258     259     260     261     262     263     264     265
     266     267     268     269     270     271     272     273     274     275
     276     299     323     348     374     401     429     458     488     519
     551     584     618     653     689     726     764     277     278     279
     280     281     282     283     284     285     286     287     288     289
     290     291     292     293     294     295     296     297     298     299
     300     324     349     375     402     430     459     489     520     552
     585     619     654     690     727     765     301     302     303     304
     305     306     307     308     309     310     311     312     313     314
     315     316     317     318     319     320     321     322     323     324
     325     350     376     403     431     460     490     521     553     586
     620     655     691     728     766     326     327     328     329     330
     331     332     333     334     335     336     337     338     339     340
     341     342     343     344     345     346     347     348     349     350
     351     377     404     432     461     491     522     554     587     621
     656     692     729     767     352     353     354     355     356     357
     358     359     360     361     362     363     364     365     366     367
     368     369     370     371     372     373     374     375     376     377
     378     405     433     462     492     523     555     588     622     657
     693     730     768     379     380     381     382     383     384     385
     386     387     388     389     390     391     392     393     394     395
     396     397     398     399     400     401     402     403     404     405
     406     434     463     493     524     556     589     623     658     694
     731     769     407     408     409     410     411     412     413     414
     415     416     417     418     419     420     421     422     423     424
     425     426     427     428     429     430     431     432     433     434
     435     464     494     525     557     590     624     659     695     732
     770     436     437     438     439     440     441     442     443     444
     445     446     447     448     449     450     451     452     453     454
     455     456     457     458     459     460     461     462     463     464
     465     495     526     558     591     625     660     696     733     771
     466     467     468     469     470     471     472     473     474     475
     476     477     478     479     480     481     482     483     484     485
     486     487     488     489     490     491     492     493     494     495
     496     527     559     592     626     661     697     734     772     497
     498     499     500     501     502     503     504     505     506     507
     508     509     510     511     512     513     514     515     516     517
     518     519     520     521     522     523     524     525     526     527
     528     560     593     627     662     698     735     773     529     530
     531     532     533     534     535     536     537     538     539     540
     541     542     543     544     545     546     547     548     549     550
     551     552     553     554     555     556     557     558     559     560
     561     594     628     663     699     736     774     562     563     564
     565     566     567     568     569     570     571     572     573     574
     575     576     577     578     579     580     581     582     583     584
     585     586     587     588     589     590     591     592     593     594
     595     629     664     700     737     775     596     597     598     599
     600     601     602     603     604     605     606     607     608     609
     610     611     612     613     614     615     616     617     618     619
     620     621     622     623     624     625     626     627     628     629
     630     665     701     738     776     631     632     633     634     635
     636     637     638     639     640     641     642     643     644     645
     646     647     648     649     650     651     652     653     654     655
     656     657     658     659     660     661     662     663     664     665
     666     702     739     777     667     668     669     670     671     672
     673     674     675     676     677     678     679     680     681     682
     683     684     685     686     687     688     689     690     691     692
     693     694     695     696     697     698     699     700     701     702
     703     740     778     704     705     706     707     708     709     710
     711     712     713     714     715     716     717     718     719     720
     721     722     723     724     725     726     727     728     729     730
     731     732     733     734     735     736     737     738     739     740
     741     779     742     743     744     745     746     747     748     749
     750     751     752     753     754     755     756     757     758     759
     760     761     762     763     764     765     766     767     768     769
     770     771     772     773     774     775     776     777     778     779
     780
%FLAG RESIDUE_LABEL
%FORMAT(20a4)
JZ4 
%FLAG RESIDUE_POINTER
%FORMAT(10I8)
       1
%FLAG BOND_FORCE_CONSTANT
%FORMAT(5E16.8)
  3.00900000E+02  3.21000000E+02  4.61100000E+02  3.84000000E+02  3.30600000E+02
  3.45800000E+02  3.71400000E+02
%FLAG BOND_EQUIL_VALUE
%FORMAT(5E16.8)
  1.53750000E+00  1.51560000E+00  1.39840000E+00  1.36370000E+00  1.09690000E+00
  1.08600000E+00  9.73000000E-01
%FLAG ANGLE_FORCE_CONSTANT
%FORMAT(5E16.8)
  6.29000000E+01  6.31000000E+01  6.35000000E+01  6.66000000E+01  6.95000000E+01
  3.94000000E+01  4.63000000E+01  4.68000000E+01  4.82000000E+01  4.90000000E+01
%FLAG ANGLE_EQUIL_VALUE
%FORMAT(5E16.8)
  1.94621748E+00  1.95599133E+00  2.10783504E+00  2.09474507E+00  2.09265067E+00
  1.87762601E+00  1.91637234E+00  1.92806605E+00  2.09230160E+00  1.89507931E+00
%FLAG DIHEDRAL_FORCE_CONSTANT
%FORMAT(5E16.8)
  1.55555545E-01  0.00000000E+00  3.62500000E+00  1.10000000E+00  1.50000000E-01
  1.60000000E-01  9.00000000E-01  9.00000000E-01
%FLAG DIHEDRAL_PERIODICITY
%FORMAT(5E16.8)
  3.00000000E+00  2.00000000E+00  2.00000000E+00  2.00000000E+00  3.00000000E+00
  3.00000000E+00  2.00000000E+00  2.00000000E+00
%FLAG DIHEDRAL_PHASE
%FORMAT(5E16.8)
  0.00000000E+00  0.00000000E+00  3.14159400E+00  3.14159400E+00  0.00000000E+00
  0.00000000E+00  3.14159400E+00  3.14159400E+00
%FLAG SCEE_SCALE_FACTOR
%FORMAT(5E16.8)
  1.20000000E+00  1.20000000E+00  1.20000000E+00  1.20000000E+00  1.20000000E+00
  1.20000000E+00  1.20000000E+00  1.20000000E+00
%FLAG SCNB_SCALE_FACTOR
%FORMAT(5E16.8)
  2.00000000E+00  2.00000000E+00  2.00000000E+00  2.00000000E+00  2.00000000E+00
  2.00000000E+00  1.00000000E+10  1.00000000E+10
%FLAG SOLTY
%FORMAT(5E16.8)
  0.00000000E+00
%FLAG LENNARD_JONES_ACOEF
%FORMAT(5E16.8)
  7.51607745E+03  9.71708124E+04  1.04308020E+06  8.61541890E+04  9.24822242E+05
  8.19971638E+05  5.44261055E+04  6.47841720E+05  5.74393447E+05  3.79876397E+05
  8.96776968E+04  9.95480409E+05  8.82619020E+05  6.06829313E+05  9.44293150E+05
  1.07193663E+02  2.56678154E+03  2.27577579E+03  1.02595247E+03  2.12601190E+03
  1.39982837E-01  9.71708124E+04  1.04308020E+06  9.24822242E+05  6.47841720E+05
  9.95480409E+05  2.56678154E+03  1.04308020E+06  4.98586810E+03  6.78771295E+04
  6.01816419E+04  3.69471493E+04  6.20665909E+04  5.94667288E+01  6.78771295E+04
  3.25969555E+03  9.71708124E+04  1.04308020E+06  9.24822242E+05  6.47841720E+05
  9.95480409E+05  2.56678154E+03  1.04308020E+06  6.78771295E+04  1.04308020E+06
  2.02461865E+05  2.09861774E+06  1.86068949E+06  1.32911059E+06  2.01562191E+06
  5.97860802E+03  2.09861774E+06  1.42791441E+05  2.09861774E+06  4.19430439E+06
  9.71708124E+04  1.04308020E+06  9.24822242E+05  6.47841720E+05  9.95480409E+05
  2.56678154E+03  1.04308020E+06  6.78771295E+04  1.04308020E+06  2.09861774E+06
  1.04308020E+06  8.61541890E+04  9.24822242E+05  8.19971638E+05  5.74393447E+05
  8.82619020E+05  2.27577579E+03  9.24822242E+05  6.01816419E+04  9.24822242E+05
  1.86068949E+06  9.24822242E+05  8.19971638E+05  6.55825680E+03  8.59947058E+04
  7.62451599E+04  4.77908224E+04  7.91627182E+04  8.90987737E+01  8.59947058E+04
  4.33325454E+03  8.59947058E+04  1.79648020E+05  8.59947058E+04  7.62451599E+04
  5.71629707E+03  8.61541890E+04  9.24822242E+05  8.19971638E+05  5.74393447E+05
  8.82619020E+05  2.27577579E+03  9.24822242E+05  6.01816419E+04  9.24822242E+05
  1.86068949E+06  9.24822242E+05  8.19971638E+05  7.62451599E+04  8.19971638E+05
  5.44261055E+04  6.47841720E+05  5.74393447E+05  3.79876397E+05  6.06829313E+05
  1.02595247E+03  6.47841720E+05  3.69471493E+04  6.47841720E+05  1.32911059E+06
  6.47841720E+05  5.74393447E+05  4.77908224E+04  5.74393447E+05  3.79876397E+05
  9.71708124E+04  1.04308020E+06  9.24822242E+05  6.47841720E+05  9.95480409E+05
  2.56678154E+03  1.04308020E+06  6.78771295E+04  1.04308020E+06  2.09861774E+06
  1.04308020E+06  9.24822242E+05  8.59947058E+04  9.24822242E+05  6.47841720E+05
  1.04308020E+06  8.96776968E+04  9.95480409E+05  8.82619020E+05  6.06829313E+05
  9.44293150E+05  2.12601190E+03  9.95480409E+05  6.20665909E+04  9.95480409E+05
  2.01562191E+06  9.95480409E+05  8.82619020E+05  7.91627182E+04  8.82619020E+05
  6.06829313E+05  9.95480409E+05  9.44293150E+05  1.41077201E+03  2.27401058E+04
  2.01619738E+04  1.12780462E+04  2.01791423E+04  9.14717124E+00  2.27401058E+04
  8.79040829E+02  2.27401058E+04  4.93469371E+04  2.27401058E+04  2.01619738E+04
  1.21014930E+03  2.01619738E+04  1.12780462E+04  2.27401058E+04  2.01791423E+04
  2.01823566E+02  8.96776968E+04  9.95480409E+05  8.82619020E+05  6.06829313E+05
  9.44293150E+05  2.12601190E+03  9.95480409E+05  6.20665909E+04  9.95480409E+05
  2.01562191E+06  9.95480409E+05  8.82619020E+05  7.91627182E+04  8.82619020E+05
  6.06829313E+05  9.95480409E+05  9.44293150E+05  2.01791423E+04  9.44293150E+05
  6.82786666E+04  7.91544162E+05  7.01803799E+05  4.71003297E+05  7.44975848E+05
  1.40467044E+03  7.91544162E+05  4.66922482E+04  7.91544162E+05  1.61587940E+06
  7.91544162E+05  7.01803799E+05  6.00750285E+04  7.01803799E+05  4.71003297E+05
  7.91544162E+05  7.44975848E+05  1.45985513E+04  7.44975848E+05  5.81803257E+05
  0.00000000E+00  0.00000000E+00  0.00000000E+00  0.00000000E+00  0.00000000E+00
  0.00000000E+00  0.00000000E+00  0.00000000E+00  0.00000000E+00  0.00000000E+00
  0.00000000E+00  0.00000000E+00  0.00000000E+00  0.00000000E+00  0.00000000E+00
  0.00000000E+00  0.00000000E+00  0.00000000E+00  0.00000000E+00  0.00000000E+00
  0.00000000E+00  8.61541890E+04  9.24822242E+05  8.19971638E+05  5.74393447E+05
  8.82619020E+05  2.27577579E+03  9.24822242E+05  6.01816419E+04  9.24822242E+05
  1.86068949E+06  9.24822242E+05  8.19971638E+05  7.62451599E+04  8.19971638E+05
  5.74393447E+05  9.24822242E+05  8.82619020E+05  2.01619738E+04  8.82619020E+05
  7.01803799E+05  0.00000000E+00  8.19971638E+05  8.96776968E+04  9.95480409E+05
  8.82619020E+05  6.06829313E+05  9.44293150E+05  2.12601190E+03  9.95480409E+05
  6.20665909E+04  9.95480409E+05  2.01562191E+06  9.95480409E+05  8.82619020E+05
  7.91627182E+04  8.82619020E+05  6.06829313E+05  9.95480409E+05  9.44293150E+05
  2.01791423E+04  9.44293150E+05  7.44975848E+05  0.00000000E+00  8.82619020E+05
  9.44293150E+05  8.61541890E+04  9.24822242E+05  8.19971638E+05  5.74393447E+05
  8.82619020E+05  2.27577579E+03  9.24822242E+05  6.01816419E+04  9.24822242E+05
  1.86068949E+06  9.24822242E+05  8.19971638E+05  7.62451599E+04  8.19971638E+05
  5.74393447E+05  9.24822242E+05  8.82619020E+05  2.01619738E+04  8.82619020E+05
  7.01803799E+05  0.00000000E+00  8.19971638E+05  8.82619020E+05  8.19971638E+05
  4.33325454E+03  5.98885616E+04  5.30987683E+04  3.23283619E+04  5.46147207E+04
  4.90239974E+01  5.98885616E+04  2.82099156E+03  5.98885616E+04  1.26338492E+05
  5.98885616E+04  5.30987683E+04  3.76169128E+03  5.30987683E+04  3.23283619E+04
  5.98885616E+04  5.46147207E+04  7.50063109E+02  5.46147207E+04  4.09427577E+04
  0.00000000E+00  5.30987683E+04  5.46147207E+04  5.30987683E+04  2.43828605E+03
  8.96776968E+04  9.95480409E+05  8.82619020E+05  6.06829313E+05  9.44293150E+05
  2.12601190E+03  9.95480409E+05  6.20665909E+04  9.95480409E+05  2.01562191E+06
  9.95480409E+05  8.82619020E+05  7.91627182E+04  8.82619020E+05  6.06829313E+05
  9.95480409E+05  9.44293150E+05  2.01791423E+04  9.44293150E+05  7.44975848E+05
  0.00000000E+00  8.82619020E+05  9.44293150E+05  8.82619020E+05  5.46147207E+04
  9.44293150E+05  8.61541890E+04  9.24822242E+05  8.19971638E+05  5.74393447E+05
  8.82619020E+05  2.27577579E+03  9.24822242E+05  6.01816419E+04  9.24822242E+05
  1.86068949E+06  9.24822242E+05  8.19971638E+05  7.62451599E+04  8.19971638E+05
  5.74393447E+05  9.24822242E+05  8.82619020E+05  2.01619738E+04  8.82619020E+05
  7.01803799E+05  0.00000000E+00  8.19971638E+05  8.82619020E+05  8.19971638E+05
  5.30987683E+04  8.82619020E+05  8.19971638E+05  5.34045390E+03  7.18621079E+04
  6.37148283E+04  3.93690827E+04  6.58473854E+04  6.63368385E+01  7.18621079E+04
  3.50301041E+03  7.18621079E+04  1.50848044E+05  7.18621079E+04  6.37148283E+04
  4.64559212E+03  6.37148283E+04  3.93690827E+04  7.18621079E+04  6.58473854E+04
  9.55000127E+02  6.58473854E+04  4.96707332E+04  0.00000000E+00  6.37148283E+04
  6.58473854E+04  6.37148283E+04  3.03448004E+03  6.58473854E+04  6.37148283E+04
  3.76169128E+03  2.02461865E+05  2.09861774E+06  1.86068949E+06  1.32911059E+06
  2.01562191E+06  5.97860802E+03  2.09861774E+06  1.42791441E+05  2.09861774E+06
  4.19430439E+06  2.09861774E+06  1.86068949E+06  1.79648020E+05  1.86068949E+06
  1.32911059E+06  2.09861774E+06  2.01562191E+06  4.93469371E+04  2.01562191E+06
  1.61587940E+06  0.00000000E+00  1.86068949E+06  2.01562191E+06  1.86068949E+06
  1.26338492E+05  2.01562191E+06  1.86068949E+06  1.50848044E+05  4.19430439E+06
  1.07193663E+02  2.56678154E+03  2.27577579E+03  1.02595247E+03  2.12601190E+03
  1.39982837E-01  2.56678154E+03  5.94667288E+01  2.56678154E+03  5.97860802E+03
  2.56678154E+03  2.27577579E+03  8.90987737E+01  2.27577579E+03  1.02595247E+03
  2.56678154E+03  2.12601190E+03  9.14717124E+00  2.12601190E+03  1.40467044E+03
  0.00000000E+00  2.27577579E+03  2.12601190E+03  2.27577579E+03  4.90239974E+01
  2.12601190E+03  2.27577579E+03  6.63368385E+01  5.97860802E+03  1.39982837E-01
  8.61541890E+04  9.24822242E+05  8.19971638E+05  5.74393447E+05  8.82619020E+05
  2.27577579E+03  9.24822242E+05  6.01816419E+04  9.24822242E+05  1.86068949E+06
  9.24822242E+05  8.19971638E+05  7.62451599E+04  8.19971638E+05  5.74393447E+05
  9.24822242E+05  8.82619020E+05  2.01619738E+04  8.82619020E+05  7.01803799E+05
  0.00000000E+00  8.19971638E+05  8.82619020E+05  8.19971638E+05  5.30987683E+04
  8.82619020E+05  8.19971638E+05  6.37148283E+04  1.86068949E+06  2.27577579E+03
  8.19971638E+05  8.61541890E+04  9.24822242E+05  8.19971638E+05  5.74393447E+05
  8.82619020E+05  2.27577579E+03  9.24822242E+05  6.01816419E+04  9.24822242E+05
  1.86068949E+06  9.24822242E+05  8.19971638E+05  7.62451599E+04  8.19971638E+05
  5.74393447E+05  9.24822242E+05  8.82619020E+05  2.01619738E+04  8.82619020E+05
  7.01803799E+05  0.00000000E+00  8.19971638E+05  8.82619020E+05  8.19971638E+05
  5.30987683E+04  8.82619020E+05  8.19971638E+05  6.37148283E+04  1.86068949E+06
  2.27577579E+03  8.19971638E+05  8.19971638E+05  8.61541890E+04  9.24822242E+05
  8.19971638E+05  5.74393447E+05  8.82619020E+05  2.27577579E+03  9.24822242E+05
  6.01816419E+04  9.24822242E+05  1.86068949E+06  9.24822242E+05  8.19971638E+05
  7.62451599E+04  8.19971638E+05  5.74393447E+05  9.24822242E+05  8.82619020E+05
  2.01619738E+04  8.82619020E+05  7.01803799E+05  0.00000000E+00  8.19971638E+05
  8.82619020E+05  8.19971638E+05  5.30987683E+04  8.82619020E+05  8.19971638E+05
  6.37148283E+04  1.86068949E+06  2.27577579E+03  8.19971638E+05  8.19971638E+05
  8.19971638E+05  6.82786666E+04  7.91544162E+05  7.01803799E+05  4.71003297E+05
  7.44975848E+05  1.40467044E+03  7.91544162E+05  4.66922482E+04  7.91544162E+05
  1.61587940E+06  7.91544162E+05  7.01803799E+05  6.00750285E+04  7.01803799E+05
  4.71003297E+05  7.91544162E+05  7.44975848E+05  1.45985513E+04  7.44975848E+05
  5.81803257E+05  0.00000000E+00  7.01803799E+05  7.44975848E+05  7.01803799E+05
  4.09427577E+04  7.44975848E+05  7.01803799E+05  4.96707332E+04  1.61587940E+06
  1.40467044E+03  7.01803799E+05  7.01803799E+05  7.01803799E+05  5.81803257E+05
  0.00000000E+00  0.00000000E+00  0.00000000E+00  0.00000000E+00  0.00000000E+00
  0.00000000E+00  0.00000000E+00  0.00000000E+00  0.00000000E+00  0.00000000E+00
  0.00000000E+00  0.00000000E+00  0.00000000E+00  0.00000000E+00  0.00000000E+00
  0.00000000E+00  0.00000000E+00  0.00000000E+00  0.00000000E+00  0.00000000E+00
  0.00000000E+00  0.00000000E+00  0.00000000E+00  0.00000000E+00  0.00000000E+00
  0.00000000E+00  0.00000000E+00  0.00000000E+00  0.00000000E+00  0.00000000E+00
  0.00000000E+00  0.00000000E+00  0.00000000E+00  0.00000000E+00  0.00000000E+00
  8.61541890E+04  9.24822242E+05  8.19971638E+05  5.74393447E+05  8.82619020E+05
  2.27577579E+03  9.24822242E+05  6.01816419E+04  9.24822242E+05  1.86068949E+06
  9.24822242E+05  8.19971638E+05  7.62451599E+04  8.19971638E+05  5.74393447E+05
  9.24822242E+05  8.82619020E+05  2.01619738E+04  8.82619020E+05  7.01803799E+05
  0.00000000E+00  8.19971638E+05  8.82619020E+05  8.19971638E+05  5.30987683E+04
  8.82619020E+05  8.19971638E+05  6.37148283E+04  1.86068949E+06  2.27577579E+03
  8.19971638E+05  8.19971638E+05  8.19971638E+05  7.01803799E+05  0.00000000E+00
  8.19971638E+05  6.55825680E+03  8.59947058E+04  7.62451599E+04  4.77908224E+04
  7.91627182E+04  8.90987737E+01  8.59947058E+04  4.33325454E+03  8.59947058E+04
  1.79648020E+05  8.59947058E+04  7.62451599E+04  5.71629707E+03  7.62451599E+04
  4.77908224E+04  8.59947058E+04  7.91627182E+04  1.21014930E+03  7.91627182E+04
  6.00750285E+04  0.00000000E+00  7.62451599E+04  7.91627182E+04  7.62451599E+04
  3.76169128E+03  7.91627182E+04  7.62451599E+04  4.64559212E+03  1.79648020E+05
  8.90987737E+01  7.62451599E+04  7.62451599E+04  7.62451599E+04  6.00750285E+04
  0.00000000E+00  7.62451599E+04  5.71629707E+03  9.71708124E+04  1.04308020E+06
  9.24822242E+05  6.47841720E+05  9.95480409E+05  2.56678154E+03  1.04308020E+06
  6.78771295E+04  1.04308020E+06  2.09861774E+06  1.04308020E+06  9.24822242E+05
  8.59947058E+04  9.24822242E+05  6.47841720E+05  1.04308020E+06  9.95480409E+05
  2.27401058E+04  9.95480409E+05  7.91544162E+05  0.00000000E+00  9.24822242E+05
  9.95480409E+05  9.24822242E+05  5.98885616E+04  9.95480409E+05  9.24822242E+05
  7.18621079E+04  2.09861774E+06  2.56678154E+03  9.24822242E+05  9.24822242E+05
  9.24822242E+05  7.91544162E+05  0.00000000E+00  9.24822242E+05  8.59947058E+04
  1.04308020E+06  7.51607745E+03  9.71708124E+04  8.61541890E+04  5.44261055E+04
  8.96776968E+04  1.07193663E+02  9.71708124E+04  4.98586810E+03  9.71708124E+04
  2.02461865E+05  9.71708124E+04  8.61541890E+04  6.55825680E+03  8.61541890E+04
  5.44261055E+04  9.71708124E+04  8.96776968E+04  1.41077201E+03  8.96776968E+04
  6.82786666E+04  0.00000000E+00  8.61541890E+04  8.96776968E+04  8.61541890E+04
  4.33325454E+03  8.96776968E+04  8.61541890E+04  5.34045390E+03  2.02461865E+05
  1.07193663E+02  8.61541890E+04  8.61541890E+04  8.61541890E+04  6.82786666E+04
  0.00000000E+00  8.61541890E+04  6.55825680E+03  9.71708124E+04  7.51607745E+03
%FLAG LENNARD_JONES_BCOEF
%FORMAT(5E16.8)
  2.17257834E+01  1.26919150E+02  6.75612237E+02  1.12529845E+02  5.99015516E+02
  5.31102856E+02  1.11805550E+02  6.26720075E+02  5.55666443E+02  5.64885983E+02
  1.36131729E+02  7.36907396E+02  6.53361410E+02  6.77220858E+02  8.01323494E+02
  2.59456394E+00  2.06278371E+01  1.82891810E+01  1.53505293E+01  2.09604202E+01
  9.37599177E-02  1.26919150E+02  6.75612237E+02  5.99015516E+02  6.26720075E+02
  7.36907396E+02  2.06278371E+01  6.75612237E+02  1.76949856E+01  1.06076938E+02
  9.40505929E+01  9.21192090E+01  1.13252053E+02  1.93248818E+00  1.06076938E+02
  1.43076511E+01  1.26919150E+02  6.75612237E+02  5.99015516E+02  6.26720075E+02
  7.36907396E+02  2.06278371E+01  6.75612237E+02  1.06076938E+02  6.75612237E+02
  2.25248303E+02  1.17824607E+03  1.04466384E+03  1.10369832E+03  1.28923404E+03
  3.87070391E+01  1.17824607E+03  1.89165093E+02  1.17824607E+03  2.04800009E+03
  1.26919150E+02  6.75612237E+02  5.99015516E+02  6.26720075E+02  7.36907396E+02
  2.06278371E+01  6.75612237E+02  1.06076938E+02  6.75612237E+02  1.17824607E+03
  6.75612237E+02  1.12529845E+02  5.99015516E+02  5.31102856E+02  5.55666443E+02
  6.53361410E+02  1.82891810E+01  5.99015516E+02  9.40505929E+01  5.99015516E+02
  1.04466384E+03  5.99015516E+02  5.31102856E+02  2.00642039E+01  1.18043750E+02
  1.04660683E+02  1.03580949E+02  1.26451909E+02  2.33864115E+00  1.18043750E+02
  1.63092813E+01  1.18043750E+02  2.09772730E+02  1.18043750E+02  1.04660683E+02
  1.85196605E+01  1.12529845E+02  5.99015516E+02  5.31102856E+02  5.55666443E+02
  6.53361410E+02  1.82891810E+01  5.99015516E+02  9.40505929E+01  5.99015516E+02
  1.04466384E+03  5.99015516E+02  5.31102856E+02  1.04660683E+02  5.31102856E+02
  1.11805550E+02  6.26720075E+02  5.55666443E+02  5.64885983E+02  6.77220858E+02
  1.53505293E+01  6.26720075E+02  9.21192090E+01  6.26720075E+02  1.10369832E+03
  6.26720075E+02  5.55666443E+02  1.03580949E+02  5.55666443E+02  5.64885983E+02
  1.26919150E+02  6.75612237E+02  5.99015516E+02  6.26720075E+02  7.36907396E+02
  2.06278371E+01  6.75612237E+02  1.06076938E+02  6.75612237E+02  1.17824607E+03
  6.75612237E+02  5.99015516E+02  1.18043750E+02  5.99015516E+02  6.26720075E+02
  6.75612237E+02  1.36131729E+02  7.36907396E+02  6.53361410E+02  6.77220858E+02
  8.01323494E+02  2.09604202E+01  7.36907396E+02  1.13252053E+02  7.36907396E+02
  1.28923404E+03  7.36907396E+02  6.53361410E+02  1.26451909E+02  6.53361410E+02
  6.77220858E+02  7.36907396E+02  8.01323494E+02  9.41257043E+00  6.13981775E+01
  5.44372333E+01  5.08951815E+01  6.45756060E+01  7.57919754E-01  6.13981775E+01
  7.42992356E+00  6.13981775E+01  1.11203898E+02  6.13981775E+01  5.44372333E+01
  8.61880791E+00  5.44372333E+01  5.08951815E+01  6.13981775E+01  6.45756060E+01
  3.56012920E+00  1.36131729E+02  7.36907396E+02  6.53361410E+02  6.77220858E+02
  8.01323494E+02  2.09604202E+01  7.36907396E+02  1.13252053E+02  7.36907396E+02
  1.28923404E+03  7.36907396E+02  6.53361410E+02  1.26451909E+02  6.53361410E+02
  6.77220858E+02  7.36907396E+02  8.01323494E+02  6.45756060E+01  8.01323494E+02
  1.25287822E+02  6.93079950E+02  6.14502848E+02  6.29300717E+02  7.50714417E+02
  1.79702270E+01  6.93079950E+02  1.03606913E+02  6.93079950E+02  1.21753345E+03
  6.93079950E+02  6.14502848E+02  1.16187990E+02  6.14502848E+02  6.29300717E+02
  6.93079950E+02  7.50714417E+02  5.79323603E+01  7.50714417E+02  6.99746826E+02
  0.00000000E+00  0.00000000E+00  0.00000000E+00  0.00000000E+00  0.00000000E+00
  0.00000000E+00  0.00000000E+00  0.00000000E+00  0.00000000E+00  0.00000000E+00
  0.00000000E+00  0.00000000E+00  0.00000000E+00  0.00000000E+00  0.00000000E+00
  0.00000000E+00  0.00000000E+00  0.00000000E+00  0.00000000E+00  0.00000000E+00
  0.00000000E+00  1.12529845E+02  5.99015516E+02  5.31102856E+02  5.55666443E+02
  6.53361410E+02  1.82891810E+01  5.99015516E+02  9.40505929E+01  5.99015516E+02
  1.04466384E+03  5.99015516E+02  5.31102856E+02  1.04660683E+02  5.31102856E+02
  5.55666443E+02  5.99015516E+02  6.53361410E+02  5.44372333E+01  6.53361410E+02
  6.14502848E+02  0.00000000E+00  5.31102856E+02  1.36131729E+02  7.36907396E+02
  6.53361410E+02  6.77220858E+02  8.01323494E+02  2.09604202E+01  7.36907396E+02
  1.13252053E+02  7.36907396E+02  1.28923404E+03  7.36907396E+02  6.53361410E+02
  1.26451909E+02  6.53361410E+02  6.77220858E+02  7.36907396E+02  8.01323494E+02
  6.45756060E+01  8.01323494E+02  7.50714417E+02  0.00000000E+00  6.53361410E+02
  8.01323494E+02  1.12529845E+02  5.99015516E+02  5.31102856E+02  5.55666443E+02
  6.53361410E+02  1.82891810E+01  5.99015516E+02  9.40505929E+01  5.99015516E+02
  1.04466384E+03  5.99015516E+02  5.31102856E+02  1.04660683E+02  5.31102856E+02
  5.55666443E+02  5.99015516E+02  6.53361410E+02  5.44372333E+01  6.53361410E+02
  6.14502848E+02  0.00000000E+00  5.31102856E+02  6.53361410E+02  5.31102856E+02
  1.63092813E+01  9.85097194E+01  8.73412990E+01  8.51921314E+01  1.05031580E+02
  1.73473078E+00  9.85097194E+01  1.31591736E+01  9.85097194E+01  1.75916128E+02
  9.85097194E+01  8.73412990E+01  1.50233644E+01  8.73412990E+01  8.51921314E+01
  9.85097194E+01  1.05031580E+02  6.78541831E+00  1.05031580E+02  9.59185909E+01
  0.00000000E+00  8.73412990E+01  1.05031580E+02  8.73412990E+01  1.20953364E+01
  1.36131729E+02  7.36907396E+02  6.53361410E+02  6.77220858E+02  8.01323494E+02
  2.09604202E+01  7.36907396E+02  1.13252053E+02  7.36907396E+02  1.28923404E+03
  7.36907396E+02  6.53361410E+02  1.26451909E+02  6.53361410E+02  6.77220858E+02
  7.36907396E+02  8.01323494E+02  6.45756060E+01  8.01323494E+02  7.50714417E+02
  0.00000000E+00  6.53361410E+02  8.01323494E+02  6.53361410E+02  1.05031580E+02
  8.01323494E+02  1.12529845E+02  5.99015516E+02  5.31102856E+02  5.55666443E+02
  6.53361410E+02  1.82891810E+01  5.99015516E+02  9.40505929E+01  5.99015516E+02
  1.04466384E+03  5.99015516E+02  5.31102856E+02  1.04660683E+02  5.31102856E+02
  5.55666443E+02  5.99015516E+02  6.53361410E+02  5.44372333E+01  6.53361410E+02
  6.14502848E+02  0.00000000E+00  5.31102856E+02  6.53361410E+02  5.31102856E+02
  8.73412990E+01  6.53361410E+02  5.31102856E+02  1.81057621E+01  1.07908863E+02
  9.56748261E+01  9.40124308E+01  1.15327880E+02  2.01792541E+00  1.07908863E+02
  1.46638644E+01  1.07908863E+02  1.92224019E+02  1.07908863E+02  9.56748261E+01
  1.66953744E+01  9.56748261E+01  9.40124308E+01  1.07908863E+02  1.15327880E+02
  7.65648504E+00  1.15327880E+02  1.05648791E+02  0.00000000E+00  9.56748261E+01
  1.15327880E+02  9.56748261E+01  1.34932873E+01  1.15327880E+02  9.56748261E+01
  1.50233644E+01  2.25248303E+02  1.17824607E+03  1.04466384E+03  1.10369832E+03
  1.28923404E+03  3.87070391E+01  1.17824607E+03  1.89165093E+02  1.17824607E+03
  2.04800009E+03  1.17824607E+03  1.04466384E+03  2.09772730E+02  1.04466384E+03
  1.10369832E+03  1.17824607E+03  1.28923404E+03  1.11203898E+02  1.28923404E+03
  1.21753345E+03  0.00000000E+00  1.04466384E+03  1.28923404E+03  1.04466384E+03
  1.75916128E+02  1.28923404E+03  1.04466384E+03  1.92224019E+02  2.04800009E+03
  2.59456394E+00  2.06278371E+01  1.82891810E+01  1.53505293E+01  2.09604202E+01
  9.37599177E-02  2.06278371E+01  1.93248818E+00  2.06278371E+01  3.87070391E+01
  2.06278371E+01  1.82891810E+01  2.33864115E+00  1.82891810E+01  1.53505293E+01
  2.06278371E+01  2.09604202E+01  7.57919754E-01  2.09604202E+01  1.79702270E+01
  0.00000000E+00  1.82891810E+01  2.09604202E+01  1.82891810E+01  1.73473078E+00
  2.09604202E+01  1.82891810E+01  2.01792541E+00  3.87070391E+01  9.37599177E-02
  1.12529845E+02  5.99015516E+02  5.31102856E+02  5.55666443E+02  6.53361410E+02
  1.82891810E+01  5.99015516E+02  9.40505929E+01  5.99015516E+02  1.04466384E+03
  5.99015516E+02  5.31102856E+02  1.04660683E+02  5.31102856E+02  5.55666443E+02
  5.99015516E+02  6.53361410E+02  5.44372333E+01  6.53361410E+02  6.14502848E+02
  0.00000000E+00  5.31102856E+02  6.53361410E+02  5.31102856E+02  8.73412990E+01
  6.53361410E+02  5.31102856E+02  9.56748261E+01  1.04466384E+03  1.82891810E+01
  5.31102856E+02  1.12529845E+02  5.99015516E+02  5.31102856E+02  5.55666443E+02
  6.53361410E+02  1.82891810E+01  5.99015516E+02  9.40505929E+01  5.99015516E+02
  1.04466384E+03  5.99015516E+02  5.31102856E+02  1.04660683E+02  5.31102856E+02
  5.55666443E+02  5.99015516E+02  6.53361410E+02  5.44372333E+01  6.53361410E+02
  6.14502848E+02  0.00000000E+00  5.31102856E+02  6.53361410E+02  5.31102856E+02
  8.73412990E+01  6.53361410E+02  5.31102856E+02  9.56748261E+01  1.04466384E+03
  1.82891810E+01  5.31102856E+02  5.31102856E+02  1.12529845E+02  5.99015516E+02
  5.31102856E+02  5.55666443E+02  6.53361410E+02  1.82891810E+01  5.99015516E+02
  9.40505929E+01  5.99015516E+02  1.04466384E+03  5.99015516E+02  5.31102856E+02
  1.04660683E+02  5.31102856E+02  5.55666443E+02  5.99015516E+02  6.53361410E+02
  5.44372333E+01  6.53361410E+02  6.14502848E+02  0.00000000E+00  5.31102856E+02
  6.53361410E+02  5.31102856E+02  8.73412990E+01  6.53361410E+02  5.31102856E+02
  9.56748261E+01  1.04466384E+03  1.82891810E+01  5.31102856E+02  5.31102856E+02
  5.31102856E+02  1.25287822E+02  6.93079950E+02  6.14502848E+02  6.29300717E+02
  7.50714417E+02  1.79702270E+01  6.93079950E+02  1.03606913E+02  6.93079950E+02
  1.21753345E+03  6.93079950E+02  6.14502848E+02  1.16187990E+02  6.14502848E+02
  6.29300717E+02  6.93079950E+02  7.50714417E+02  5.79323603E+01  7.50714417E+02
  6.99746826E+02  0.00000000E+00  6.14502848E+02  7.50714417E+02  6.14502848E+02
  9.59185909E+01  7.50714417E+02  6.14502848E+02  1.05648791E+02  1.21753345E+03
  1.79702270E+01  6.14502848E+02  6.14502848E+02  6.14502848E+02  6.99746826E+02
  0.00000000E+00  0.00000000E+00  0.00000000E+00  0.00000000E+00  0.00000000E+00
  0.00000000E+00  0.00000000E+00  0.00000000E+00  0.00000000E+00  0.00000000E+00
  0.00000000E+00  0.00000000E+00  0.00000000E+00  0.00000000E+00  0.00000000E+00
  0.00000000E+00  0.00000000E+00  0.00000000E+00  0.00000000E+00  0.00000000E+00
  0.00000000E+00  0.00000000E+00  0.00000000E+00  0.00000000E+00  0.00000000E+00
  0.00000000E+00  0.00000000E+00  0.00000000E+00  0.00000000E+00  0.00000000E+00
  0.00000000E+00  0.00000000E+00  0.00000000E+00  0.00000000E+00  0.00000000E+00
  1.12529845E+02  5.99015516E+02  5.31102856E+02  5.55666443E+02  6.53361410E+02
  1.82891810E+01  5.99015516E+02  9.40505929E+01  5.99015516E+02  1.04466384E+03
  5.99015516E+02  5.31102856E+02  1.04660683E+02  5.31102856E+02  5.55666443E+02
  5.99015516E+02  6.53361410E+02  5.44372333E+01  6.53361410E+02  6.14502848E+02
  0.00000000E+00  5.31102856E+02  6.53361410E+02  5.31102856E+02  8.73412990E+01
  6.53361410E+02  5.31102856E+02  9.56748261E+01  1.04466384E+03  1.82891810E+01
  5.31102856E+02  5.31102856E+02  5.31102856E+02  6.14502848E+02  0.00000000E+00
  5.31102856E+02  2.00642039E+01  1.18043750E+02  1.04660683E+02  1.03580949E+02
  1.26451909E+02  2.33864115E+00  1.18043750E+02  1.63092813E+01  1.18043750E+02
  2.09772730E+02  1.18043750E+02  1.04660683E+02  1.85196605E+01  1.04660683E+02
  1.03580949E+02  1.18043750E+02  1.26451909E+02  8.61880791E+00  1.26451909E+02
  1.16187990E+02  0.00000000E+00  1.04660683E+02  1.26451909E+02  1.04660683E+02
  1.50233644E+01  1.26451909E+02  1.04660683E+02  1.66953744E+01  2.09772730E+02
  2.33864115E+00  1.04660683E+02  1.04660683E+02  1.04660683E+02  1.16187990E+02
  0.00000000E+00  1.04660683E+02  1.85196605E+01  1.26919150E+02  6.75612237E+02
  5.99015516E+02  6.26720075E+02  7.36907396E+02  2.06278371E+01  6.75612237E+02
  1.06076938E+02  6.75612237E+02  1.17824607E+03  6.75612237E+02  5.99015516E+02
  1.18043750E+02  5.99015516E+02  6.26720075E+02  6.75612237E+02  7.36907396E+02
  6.13981775E+01  7.36907396E+02  6.93079950E+02  0.00000000E+00  5.99015516E+02
  7.36907396E+02  5.99015516E+02  9.85097194E+01  7.36907396E+02  5.99015516E+02
  1.07908863E+02  1.17824607E+03  2.06278371E+01  5.99015516E+02  5.99015516E+02
  5.99015516E+02  6.93079950E+02  0.00000000E+00  5.99015516E+02  1.18043750E+02
  6.75612237E+02  2.17257834E+01  1.26919150E+02  1.12529845E+02  1.11805550E+02
  1.36131729E+02  2.59456394E+00  1.26919150E+02  1.76949856E+01  1.26919150E+02
  2.25248303E+02  1.26919150E+02  1.12529845E+02  2.00642039E+01  1.12529845E+02
  1.11805550E+02  1.26919150E+02  1.36131729E+02  9.41257043E+00  1.36131729E+02
  1.25287822E+02  0.00000000E+00  1.12529845E+02  1.36131729E+02  1.12529845E+02
  1.63092813E+01  1.36131729E+02  1.12529845E+02  1.81057621E+01  2.25248303E+02
  2.59456394E+00  1.12529845E+02  1.12529845E+02  1.12529845E+02  1.25287822E+02
  0.00000000E+00  1.12529845E+02  2.00642039E+01  1.26919150E+02  2.17257834E+01
%FLAG BONDS_INC_HYDROGEN
%FORMAT(10I8)
      54      57       5      54      60       5      54      63       5      45
      48       5      45      51       5      36      39       5      36      42
       5      27      30       6      21      24       6      15      18       6
       9      12       6       0       3       7
%FLAG BONDS_WITHOUT_HYDROGEN
%FORMAT(10I8)
      45      54       1      36      45       1      33      36       2      27
      33       3      21      27       3      15      21       3       9      15
       3       6       9       3       6      33       3       0       6       4
%FLAG ANGLES_INC_HYDROGEN
%FORMAT(10I8)
      60      54      63       6      57      54      60       6      57      54
      63       6      51      45      54       7      48      45      51       6
      48      45      54       7      45      54      57       7      45      54
      60       7      45      54      63       7      42      36      45       7
      39      36      42       6      39      36      45       7      36      45
      48       7      36      45      51       7      33      36      39       8
      33      36      42       8      30      27      33       9      24      21
      27       9      21      27      30       9      18      15      21       9
      15      21      24       9      12       9      15       9       9      15
      18       9       6       9      12       9       3       0       6      10
%FLAG ANGLES_WITHOUT_HYDROGEN
%FORMAT(10I8)
      36      45      54       1      33      36      45       2      27      33
      36       3      21      27      33       4      15      21      27       4
       9       6      33       4       9      15      21       4       6       9
      15       4       6      33      27       4       6      33      36       3
       0       6       9       5       0       6      33       5
%FLAG DIHEDRALS_INC_HYDROGEN
%FORMAT(10I8)
      51      45      54      57       5      51      45      54      60       5
      51      45      54      63       5      48      45      54      57       5
      48      45      54      60       5      48      45      54      63       5
      42      36      45      48       5      42      36      45      51       5
      42      36      45      54       6      39      36      45      48       5
      39      36      45      51       5      39      36      45      54       6
      36      45      54      57       6      36      45      54      60       6
      36      45      54      63       6      33      36      45      48       1
      33      36      45      51       1      30      27      33      36       3
      27      33      36      39       2      27      33      36      42       2
      24      21      27      30       3      24      21      27      33       3
      18      15      21      24       3      18      15      21      27       3
      15      21      27      30       3      12       9       6      33       3
      12       9      15      18       3      12       9      15      21       3
       9      15      21      24       3       6       9      15      18       3
       6      33      27      30       3       6      33      36      39       2
       6      33      36      42       2       3       0       6       9       7
       3       0       6      33       8       0       6       9      12       3
      21      33     -27     -30       4      15      27     -21     -24       4
       9      21     -15     -18       4       6      15      -9     -12       4
%FLAG DIHEDRALS_WITHOUT_HYDROGEN
%FORMAT(10I8)
      33      36      45      54       1      27      33      36      45       2
      21      27      33      36       3      15       9       6      33       3
      15      21     -27      33       3       9       6      33      27       3
       9       6      33      36       3       9      15     -21      27       3
       6       9      15      21       3       6      33     -27      21       3
       6      33      36      45       2       0       6       9      15       3
       0       6      33      27       3       0       6      33      36       3
       6      27     -33     -36       4       0       6     -33      -9       4
%FLAG EXCLUDED_ATOMS_LIST
%FORMAT(10I8)
       2       3       4       5       6      10      12      13       3       4
      12       4       5       6       7       8      10      11      12      13
      14      15      16       5       6       7       8       9      10      12
      13       6       7       8      12       7       8       9      10      11
      12       8       9      10       9      10      11      12      13      10
      11      12      11      12      13      14      15      16      12      13
      13      14      15      16      17      18      19      14      15      16
      17      18      19      20      21      22      15      16      17      18
      19      16      17      18      19      17      18      19      20      21
      22      18      19      20      21      22      19      20      21      22
      20      21      22      21      22      22       0
%FLAG HBOND_ACOEF
%FORMAT(5E16.8)

%FLAG HBOND_BCOEF
%FORMAT(5E16.8)

%FLAG HBCUT
%FORMAT(5E16.8)

%FLAG AMBER_ATOM_TYPE
%FORMAT(20a4)
oh  ho  ca  ca  ha  ca  ha  ca  ha  ca  ha  ca  c3  hc  hc  c3  hc  hc  c3  hc  
hc  hc  
%FLAG TREE_CHAIN_CLASSIFICATION
%FORMAT(20a4)
BLA BLA BLA BLA BLA BLA BLA BLA BLA BLA BLA BLA BLA BLA BLA BLA BLA BLA BLA BLA 
BLA BLA 
%FLAG JOIN_ARRAY
%FORMAT(10I8)
       0       0       0       0       0       0       0       0       0       0
       0       0       0       0       0       0       0       0       0       0
       0       0
%FLAG IROTAT
%FORMAT(10I8)
       0       0       0       0       0       0       0       0       0       0
       0       0       0       0       0       0       0       0       0       0
       0       0
%FLAG RADIUS_SET
%FORMAT(1a80)
H(N)-modified Bondi radii (mbondi2)                                             
%FLAG RADII
%FORMAT(5E16.8)
  1.50000000E+00  1.20000000E+00  1.70000000E+00  1.70000000E+00  1.20000000E+00
  1.70000000E+00  1.20000000E+00  1.70000000E+00  1.20000000E+00  1.70000000E+00
  1.20000000E+00  1.70000000E+00  1.70000000E+00  1.20000000E+00  1.20000000E+00
  1.70000000E+00  1.20000000E+00  1.20000000E+00  1.70000000E+00  1.20000000E+00
  1.20000000E+00  1.20000000E+00
%FLAG SCREEN
%FORMAT(5E16.8)
  8.50000000E-01  8.50000000E-01  7.20000000E-01  7.20000000E-01  8.50000000E-01
  7.20000000E-01  8.50000000E-01  7.20000000E-01  8.50000000E-01  7.20000000E-01
  8.50000000E-01  7.20000000E-01  7.20000000E-01  8.50000000E-01  8.50000000E-01
  7.20000000E-01  8.50000000E-01  8.50000000E-01  7.20000000E-01  8.50000000E-01
  8.50000000E-01  8.50000000E-01
%FLAG IPOL
%FORMAT(1I8)
       0
