default_name
 45770
  19.0615458  39.8671692  46.2591226  19.9476644  40.0474325  45.6505184
  19.9307965  41.0715291  45.2776378  19.9579935  39.3549661  44.8088043
  21.0846644  39.8674325  46.3755184  20.0086644  39.6324325  47.1735184
  22.4436644  39.9014325  46.3305184  21.9838784  40.4763440  45.6390180
  23.9346644  39.8794325  46.3535184  24.3167499  40.7512088  45.8223727
  24.4736644  39.9054325  47.7905184  23.8601235  39.1983263  48.3487906
  25.4952044  39.5301571  47.7294897  24.4696644  41.2334325  48.4915184
  23.4359821  41.5767317  48.5333209  24.8384503  41.0686203  49.5039096
  25.4776644  42.4894325  47.6925184  27.0036644  41.5654325  47.4535184
  26.8072137  40.6936743  46.8293839  27.7418522  42.2019888  46.9656910
  27.3873812  41.2402674  48.4205398  24.4476644  38.6314325  45.6945184
  23.8176644  37.5724325  45.7905184  25.5786644  38.7554325  45.0425184
  25.9280543  39.6951091  44.9199062  26.3266644  37.6504325  44.4335184
  26.2448027  36.7703267  45.0713364  25.7856644  37.2924325  43.0215184
  26.3767162  36.4692756  42.6200588  24.7449482  36.9813424  43.1122531
  25.8616644  38.4804325  42.0375184  26.9186644  39.0104325  41.8085184
  24.7086644  38.8894325  41.4595184  24.7194369  39.6633442  40.8106391
  23.8424359  38.4189726  41.6795562  27.8056644  38.1154325  44.4125184
  28.1446644  39.2784325  44.8105184  28.6856644  37.2114325  44.0085184
  28.3848755  36.2829245  43.7487141  30.0976644  37.4944325  44.0165184
  30.4821567  37.8744742  44.9630030  30.8926644  36.1954325  43.6105184
  30.5959701  35.3748688  44.2637781  30.5836644  35.8204325  42.1365184
  30.8805357  36.6403832  41.4825697  31.1378048  34.9216591  41.8658978
  29.5153306  35.6355161  42.0244109  32.4046644  36.3224325  43.8885184
  32.7751463  35.3020011  43.7907238  32.7737377  36.9236137  43.0575759
  32.9036644  36.9264325  45.2235184  32.5353498  36.3254771  46.0549610
  33.9935838  36.9326572  45.2351890  32.5339390  37.9470896  45.3218141
  30.5316644  38.6694325  43.1315184  31.4796644  39.3754325  43.4815184
  29.8586644  38.8824325  41.9985184  29.1773798  38.2319592  41.6340527
  30.1956644  40.0374325  41.2025184  31.2791751  40.0947127  41.0984864
  29.5626644  39.9694325  39.7825184  28.4853217  39.8341962  39.8781383
  29.7651040  40.8532821  39.1775985  30.0896644  38.7604325  38.9865184
  29.5666644  37.4834325  39.1765184  28.7313144  37.3694366  39.8673839
  30.0856644  36.3574325  38.5065184  29.7002352  35.3580172  38.7082957
  31.0766644  36.5304325  37.6015184  31.4487798  35.6745908  37.0383442
  31.6196644  37.7914325  37.3885184  32.4264242  37.9147074  36.6659936
  31.1346644  38.9054325  38.0985184  31.5851530  39.8863982  37.9473026
  29.8216644  41.3054325  41.8935184  30.5776644  42.2664325  41.8705184
  28.6176644  41.3364325  42.4595184  27.9880836  40.5469883  42.4819978
  28.1886644  42.5764325  43.0795184  28.2486460  43.4047000  42.3734913
  26.7836644  42.4204325  43.5055184  26.7133310  41.5332673  44.1348756
  26.5020947  43.2996278  44.0850303  25.8306644  42.2724325  42.2995184
  25.9878384  43.0944915  41.6012232  26.0742224  41.3292918  41.8103718
  24.3746644  42.2534325  42.7405184  24.1156644  42.5454325  43.9185184
  23.4726644  41.9794325  41.9175184  29.0936644  42.8684325  44.3095184
  29.3976644  43.9984325  44.6315184  29.4406644  41.7894325  45.0075184
  29.0712080  40.8869661  44.7445434  30.2966644  41.8664325  46.1635184
  29.8545580  42.5229538  46.9129321  30.4746644  40.4764325  46.7755184
  29.4870609  40.0203681  46.8443940  31.0956890  39.8957332  46.0934503
  31.1276644  40.4994325  48.1705184  31.9408083  41.2231284  48.2267503
  30.4012416  40.7081598  48.9559132  31.7786644  38.8774325  48.3995184
  32.0256644  38.8454325  50.2105184  31.0702469  39.0032416  50.7108910
  32.4341411  37.8787226  50.5050003  32.7200939  39.6352277  50.4970360
  31.6296644  42.4484325  45.7975184  32.0736644  43.4144325  46.4375184
  32.3016644  41.8514325  44.8135184  31.9230511  41.0243591  44.3745412
  33.6426644  42.2924325  44.4235184  34.2476730  42.4131019  45.3221299
  34.3386644  41.2984325  43.4965184  33.5866623  40.8562246  42.8430322
  35.1265766  41.7469844  42.8914602  34.9326644  40.2234325  44.3815184
  34.2001329  39.9623584  45.1452846  35.2896644  39.0104325  43.6035184
  36.0225559  39.2706414  42.8398036  35.7129383  38.2608391  44.2721363
  34.3959784  38.6079731  43.1265989  36.1456644  40.8284325  45.0855184
  35.8302612  41.6832474  45.6837756  36.6008057  40.0798521  45.7340360
  36.8727807  41.1545539  44.3418480  33.6076644  43.6664325  43.8175184
  34.5456644  44.4594325  44.0155184  32.5056644  43.9924325  43.1385184
  31.7485701  43.3342823  43.0212750  32.3686644  45.3314325  42.5335184
  33.2268459  45.5266061  41.8904547  31.0896644  45.4374325  41.6905184
  31.2458059  44.8444449  40.7893609  30.2794066  45.0021343  42.2754097
  30.7246644  46.8664325  41.3015184  29.6720607  46.8673816  41.0184542
  30.8632808  47.4892681  42.1852397  31.5646644  47.4244325  40.1465184
  32.6211324  47.3848045  40.4118557  31.3931368  46.8285922  39.2500519
  31.1976644  48.8404325  39.8565184  30.8044569  49.0257905  38.9448553
  31.3926644  49.8724325  40.6915184  31.9576644  49.7144325  41.8955184
  32.2502912  48.7956353  42.1959870  32.0885288  50.5148006  42.4975027
  30.9856644  51.0834325  40.3655184  30.5234406  51.2363720  39.4806123
  31.1380052  51.8525317  41.0022109  32.3126644  46.4274325  43.6445184
  32.8816644  47.5074325  43.4765184  31.6096644  46.1414325  44.7505184
  30.9964382  45.3390962  44.7681100  31.6186644  47.0324325  45.9095184
  31.4299666  48.0812451  45.6804239  30.6276644  46.5574325  46.9535184
  30.6471310  45.4685884  46.9997799  31.0096644  47.1494325  48.3625184
  30.9899603  48.2383105  48.3171648  30.2936710  46.8043543  49.1084241
  32.0100511  46.8158326  48.6382662  29.1776644  46.8734325  46.4715184
  29.0052772  47.9319589  46.6662109  29.1576096  46.6942852  45.3965284
  28.0626644  46.0314325  47.1585184  28.0817969  46.2104232  48.2335515
  27.0903705  46.3208198  46.7597718  28.2341310  44.9727487  46.9638706
  33.0666644  47.1654325  46.4695184  33.5676644  48.2654325  46.6425184
  33.7576644  46.0424325  46.6205184  33.3218840  45.1736932  46.3457697
  35.0676644  45.9864325  47.2695184  35.0718569  46.6371188  48.1439833
  35.3886644  44.5644325  47.7185184  35.1801807  43.8473181  46.9245532
  36.4572260  44.5670908  47.9336206  34.6136644  44.1674325  48.9825184
  34.0586644  45.0514325  49.6615184  34.4926644  42.9534325  49.2745184
  36.1936644  46.5564325  46.4065184  37.1376644  47.1714325  46.9325184
  36.0366644  46.4524325  45.0885184  35.1510805  46.1938894  44.6774271
  37.1796644  46.6864325  44.1925184  38.0984605  46.7273777  44.7775281
  37.3056644  45.5804325  43.1735184  36.3085065  45.3998841  42.7720490
  37.9551640  45.9490803  42.3795732  37.8656644  44.2944325  43.7235184
  37.1503774  43.8717748  44.4290861  37.9720995  43.6250051  42.8699156
  39.2136644  44.4614325  44.4075184  39.8796644  45.5684325  44.3395184
  39.6476644  43.5024325  45.0725184  36.9676644  48.0154325  43.5115184
  37.9096644  48.6204325  43.1145184  35.7176644  48.4694325  43.4055184
  34.9668401  48.0005643  43.8918567  35.3856644  49.6684325  42.5775184
  34.3795615  49.9914418  42.8449529  36.0976751  50.4550242  42.8273454
  35.4406644  49.4074325  41.0725184  35.5746644  48.2524325  40.6315184
  35.1976644  50.4804325  40.3125184  34.8284531  51.3186664  40.7381311
  35.3586644  50.4544325  38.8685184  35.9859810  49.6090028  38.5859909
  34.0036644  50.3134325  38.1695184  33.5957550  49.3445862  38.4576956
  33.4220662  51.1063529  38.6397532  33.9336644  50.4644325  36.6415184
  34.3256995  51.4410884  36.3577007  34.7696644  49.3604325  35.9675184
  34.3779140  48.3834248  36.2505141  34.7158321  49.4731502  34.8846991
  35.8077554  49.4422717  36.2896515  32.4556644  50.2434325  36.3005184
  31.8487666  50.9914514  36.8106577  32.3132809  50.3336452  35.2236294
  32.1524488  49.2478249  36.6244396  36.1126644  51.7064325  38.4425184
  35.6466644  52.8274325  38.6255184  37.3096644  51.5174325  37.8975184
  37.7456305  50.6063719  37.8987739  38.0436644  52.6334325  37.3165184
  37.3926792  53.5032933  37.2289995  39.2306644  52.9994325  38.2065184
  39.9557620  52.1862696  38.1733679  39.6888177  53.9100368  37.8205193
  38.7636644  53.2374325  39.7225184  37.9039008  53.9063578  39.6844886
  38.4519910  52.2677066  40.1105823  39.8326644  53.8334325  40.6395184
  39.4667556  53.9079228  41.6635599  40.7394235  53.2288201  40.6213174
  40.1496644  55.1534325  40.1665184  39.5862577  55.5394732  39.4224452
  41.1136644  55.9054325  40.6875184  41.8746644  55.4234325  41.6805184
  41.7123353  54.4895827  42.0293362  42.6068101  55.9963726  42.0752359
  41.3386644  57.1054325  40.1845184  40.7792232  57.4391213  39.4126522
  42.0691629  57.6840460  40.5739756  38.5066644  52.2334325  35.9205184
  38.9746644  51.0944325  35.7055184  38.3706644  53.1604325  34.9875184
  38.0439213  54.0889868  35.2136271  38.5906644  52.8364325  33.6165184
  38.5564144  51.7549253  33.4851090  37.5296644  53.4634325  32.7405184
  37.6445882  54.5307415  32.9295768  37.7986640  53.2470786  31.7066276
  36.0576644  53.0514325  32.9875184  35.7119065  53.4465185  33.9427458
  35.2016644  53.6344325  31.8525184  35.5465521  53.2394197  30.8969473
  34.1584662  53.3573573  32.0043986  35.2918638  54.7206910  31.8498923
  35.8666644  51.5754325  33.0725184  36.4615049  51.1783448  33.8950667
  34.8136158  51.3542374  33.2464800  36.1850182  51.1129518  32.1382479
  39.9446644  53.2254325  33.1785184  40.3086644  52.8574325  32.0805184
  40.7196644  53.9094325  34.0245184  40.3855259  54.0987845  34.9586472
  42.0896644  54.3534325  33.6635184  42.2628555  54.0957533  32.6186713
  42.3276644  55.8614325  33.8435184  42.0102630  56.1185659  34.8540816
  43.3998483  56.0315612  33.7456513  41.5776644  56.7374325  32.8345184
  42.1259398  56.7270124  31.8925066  40.5844816  56.3154094  32.6809393
  41.4446644  58.2124325  33.3445184  40.7533757  58.2334254  34.1870018
  42.4241288  58.5628134  33.6700674  40.9246644  59.1174325  32.2405184
  41.7567076  59.3674686  31.5822733  40.1681736  58.5708273  31.6774522
  40.3346644  60.3584325  32.7805184  41.0355997  60.8652914  33.3019428
  40.0014185  60.9319346  32.0188476  39.5633838  60.1269824  33.3901545
  43.0056644  53.6444325  34.6225184  42.6136644  53.4364325  35.7865184
  44.2186644  53.3114325  34.1785184  44.4709293  53.4370579  33.2086318
  45.1686644  52.6574325  35.0565184  44.8057054  51.7176559  35.4726674
  46.5166644  52.4294325  34.3905184  46.8633227  53.3795644  33.9840978
  47.5786644  51.8754325  35.4015184  47.2328962  50.9250189  35.8080391
  48.5277872  51.7260669  34.8867791  47.7148745  52.5894106  36.2137876
  46.3756644  51.5544325  33.1195184  45.9029724  50.6158326  33.4088163
  45.7315706  52.0837043  32.4172976  47.7306644  51.2614325  32.4515184
  48.3751798  50.7317263  33.1530247  47.5741684  50.6451427  31.5661964
  48.2037792  52.1995988  32.1615080  45.3276644  53.4344325  36.3615184
  45.4426644  54.6394325  36.3595184  45.2556644  52.7194325  37.4735184
  45.0958310  51.7235364  37.4211373  45.3776644  53.3494325  38.8285184
  45.8769130  54.3123871  38.7209617  44.0006644  53.5774325  39.5145184
  44.1838446  54.1543004  40.4210324  43.4117734  54.1738880  38.8177055
  43.2396644  52.3124325  39.8655184  43.2816644  51.7574325  41.1785184
  43.8541006  52.2735566  41.9492532  42.5786644  50.5264325  41.4975184
  42.6487567  50.1051133  42.5003539  41.7736644  49.9104325  40.5355184
  41.0356644  48.7214325  40.8175184  41.1568267  48.4092565  41.7172214
  41.7156644  50.4454325  39.2105184  41.1206463  49.9404343  38.4495776
  42.4326644  51.6354325  38.8825184  42.3748546  52.0462101  37.8745403
  46.2456644  52.3934325  39.6565184  46.4496644  51.2514325  39.2605184
  46.7126644  52.8744325  40.7975184  46.5782435  53.8553176  40.9972551
  47.4306644  52.1024325  41.7175184  47.8354780  51.2248115  41.2135278
  48.5646644  52.8764325  42.3155184  48.1565690  53.7913137  42.7451109
  49.0049497  52.2691944  43.1064108  49.6086644  53.2214325  41.3175184
  49.9123163  52.3253712  40.7762509  49.2176890  53.9557225  40.6132042
  50.7596644  53.7814325  42.0135184  50.4037697  54.5927243  42.6485330
  51.1888640  52.9956701  42.6351812  51.8496644  54.3254325  41.0365184
  52.3479610  53.5154124  40.5039130  51.4263782  55.0263386  40.3170335
  52.8526644  55.0454325  41.9115184  53.2453263  54.3960337  42.5779999
  53.5908291  55.4244551  41.3357106  52.3912238  55.7963244  42.4048063
  46.4406644  51.6244325  42.7945184  45.5926644  52.4104325  43.3115184
  46.4826644  50.3234325  43.0255184  47.0862165  49.7372207  42.4667877
  45.6376644  49.6864325  44.0335184  44.6325524  50.1035055  43.9710748
  45.5506644  48.1504325  43.8305184  44.7684594  47.7961577  44.5018930
  45.2554012  47.9624107  42.7982551  46.8706644  47.3994325  44.1345184
  47.8666644  47.9474325  44.6095184  46.9316644  46.1624325  43.8605184
  46.1806644  50.0084325  45.4385184  47.1086644  50.7994325  45.5795184
  45.6026644  49.3874325  46.4585184  44.8702006  48.7048565  46.3255290
  45.9166644  49.8064325  47.8155184  45.9405000  50.8925938  47.9037482
  44.8886644  49.2664325  48.7805184  43.8941635  49.5216386  48.4145429
  45.0086644  47.7634325  48.9075184  46.0028155  47.5074650  49.2739114
  44.2582947  47.3963897  49.6077499  44.8514515  47.3021938  47.9325089
  45.0706644  49.8954325  50.0415184  44.4214124  49.5590700  50.6635574
  47.3596644  49.4434325  48.1845184  47.9036644  49.9674325  49.1355184
  47.9746644  48.5474325  47.4015184  47.4093508  48.0082698  46.7613438
  49.3726644  48.2024325  47.5395184  49.7189007  48.4715992  48.5374006
  49.5886644  46.6904325  47.3345184  49.2186854  46.4788690  46.3312958
  50.6687953  46.5464535  47.3607365  48.9396644  45.7644325  48.3095184
  47.8731267  45.9793298  48.3759819  49.0829553  44.7525458  47.9305034
  49.5696644  45.8824325  49.6955184  50.8216644  46.1124325  49.8505184
  48.8096644  45.7824325  50.6605184  50.3126644  49.0474325  46.6625184
  51.5366644  48.8564325  46.7135184  49.7816644  50.0044325  45.8945184
  48.7895361  50.1876284  45.9416363  50.5966644  50.8104325  44.9725184
  50.0922721  51.7638893  44.8156499  51.5665225  50.9853495  45.4382207
  50.8076644  50.1384325  43.6325184  51.6286644  50.6034325  42.8745184
  50.0706644  49.0464325  43.3295184  49.3543724  48.7607595  43.9817577
  50.2246644  48.2814325  42.0855184  51.2479302  48.3766144  41.7222461
  49.9236644  46.8014325  42.3145184  48.8947838  46.7665162  42.6726871
  49.9837292  46.3241774  41.3363978  50.8096644  46.0794325  43.2755184
  52.1676644  46.3324325  43.3115184  52.5921604  47.0685614  42.6288642
  52.9886644  45.6604325  44.2045184  54.0572484  45.8739338  44.2299587
  52.4476644  44.7134325  45.0685184  53.2936644  44.0464325  45.9515184
  54.2103373  44.3202098  45.8717909  51.0916644  44.4464325  45.0425184
  50.6611550  43.7073293  45.7181578  50.2846644  45.1204325  44.1565184
  49.2146754  44.9144119  44.1286032  49.2826644  48.7054325  41.0085184
  48.1156644  48.8294325  41.2955184  49.8146644  48.8384325  39.7775184
  50.7931629  48.6201854  39.6550104  49.0616644  49.2804325  38.6255184
  48.6127806  50.2504939  38.8390209  49.9306644  49.4124325  37.4235184
  50.5070119  48.4906570  37.3444444  49.3056853  49.5266661  36.5378256
  50.8506644  50.5594325  37.5265184  52.2076644  50.3464325  37.4515184
  52.5878750  49.3322922  37.3288039  53.1056644  51.4314325  37.5325184
  54.1784491  51.2597484  37.4444304  52.6216644  52.7174325  37.6855184
  53.5116644  53.7484325  37.7645184  54.4254495  53.4607115  37.7027682
  51.2376644  52.9474325  37.7965184  50.8367669  53.9518436  37.9326799
  50.3706644  51.8514325  37.7285184  49.2959402  51.9993049  37.8343567
  47.9636644  48.2834325  38.3155184  48.2186644  47.0794325  38.2355184
  46.7626644  48.8294325  38.1855184  46.6932693  49.8330843  38.0962628
  45.5166644  48.0434325  38.2215184  45.6325151  47.0380886  37.8165968
  44.9866644  47.9314325  39.7125184  44.8802381  48.9412948  40.1086897
  43.6226644  47.1934325  39.8035184  43.7284213  46.1832718  39.4079295
  43.3045830  47.1438110  40.8448930  42.8766001  47.7346725  39.2216698
  45.9946644  47.2744325  40.5305184  45.6778008  47.2045907  41.4340226
  44.5596644  48.7744325  37.2885184  44.7436644  49.9304325  37.0435184
  43.5556644  48.1104325  36.7345184  43.5338365  47.1011748  36.7664845
  42.5056644  48.8034325  35.9885184  42.2483800  49.7975410  36.3541031
  42.8526644  48.8824325  34.4365184  43.8677199  49.2581378  34.3076459
  42.7456644  47.4984325  33.8285184  41.7306935  47.1222279  33.9566001
  42.9826008  47.5485823  32.7657640  43.4466269  46.8276118  34.3252582
  42.0086644  50.0004325  33.7695184  41.0042192  49.5986128  33.6363581
  41.9764023  50.8319749  34.4735040  42.5426644  50.4924325  32.4245184
  42.5747809  49.6614846  31.7198242  41.8876014  51.2723246  32.0362402
  43.5469655  50.8948448  32.5569699  41.1716644  48.1044325  36.2425184
  41.1446644  47.0254325  36.7795184  40.0806644  48.7304325  35.8645184
  40.1392900  49.7028815  35.5980505  38.7756644  48.0754325  35.8125184
  38.0587178  48.7317798  35.3192691  38.8585823  47.1433767  35.2535050
  38.2876644  47.7724325  37.1955184  38.2716644  48.6714325  38.0665184
  37.8906644  46.5054325  37.3945184  37.8283586  45.8816604  36.6026057
  37.3566644  46.0424325  38.6975184  37.2414122  46.9095818  39.3478015
  36.0126644  45.3174325  38.5705184  36.1535296  44.4433612  37.9347065
  35.4736644  44.8744325  39.9355184  35.3320943  45.7480683  40.5717722
  34.5196292  44.3644643  39.8019148  36.1854746  44.1953278  40.4048181
  34.9376644  46.2184325  37.9075184  34.4999637  46.8151963  38.7077632
  35.4682940  46.8726153  37.2157261  33.8156644  45.4694325  37.1505184
  33.2842519  44.8153530  37.8418075  33.1184403  46.1916532  36.7258126
  34.2525829  44.8727698  36.3497714  38.4636644  45.2494325  39.4215184
  38.4026644  44.0344325  39.5125184  39.4836644  45.9574325  39.9315184
  39.4907991  46.9646207  39.8565503  40.5986644  45.3084325  40.6005184
  41.2905546  46.0877472  40.9199800  40.2034189  44.7930494  41.4758816
  41.3416644  44.3144325  39.7385184  41.7856644  43.2214325  40.1975184
  41.5326644  44.6924325  38.4845184  41.1668261  45.5466289  38.0887783
  42.3186644  43.8204325  37.6315184  42.2174628  42.7956615  37.9888724
  41.8726644  43.8744325  36.1665184  40.8393562  43.6298900  35.9204037
  42.0762582  44.9090758  35.8905426  42.7276644  43.0274325  35.2985184
  42.5536644  41.6714325  35.1965184  43.5106644  41.1614325  34.4365184
  43.5299104  40.0972102  34.2016577  44.3206644  42.1374325  34.0865184
  45.1449222  42.0453997  33.5101254  43.8696644  43.3094325  34.6295184
  44.4275804  44.2327060  34.4733235  43.7586644  44.2974325  37.7435184
  44.1376644  45.3224325  37.1525184  44.5566644  43.5054325  38.4365184
  44.1818838  42.6436134  38.8065275  45.9516644  43.8034325  38.6725184
  46.0695787  44.8135457  39.0647767  46.4976644  42.8064325  39.7095184
  45.9222439  43.0585927  40.6002516  46.2668785  41.7854529  39.4054811
  48.0006644  42.9214325  40.0205184  48.5652958  42.7355529  39.1068768
  48.3376644  44.3174325  40.5535184  47.7737220  44.5038679  41.4674711
  49.4048536  44.3775318  40.7670505  48.0745573  45.0656655  39.8058404
  48.4746644  41.7754325  41.0185184  48.2878767  40.8005602  40.5681477
  49.5406679  41.8846797  41.2180249  47.9204749  41.8552328  41.9537216
  46.6786644  43.6314325  37.3515184  46.5576644  42.5924325  36.6795184
  47.4016644  44.6484325  36.9415184  47.4901660  45.4867151  37.4978897
  48.1486644  44.5714325  35.6615184  47.6475341  43.9041109  34.9603412
  48.2036644  45.9444325  35.0605184  48.4977944  46.6475402  35.8397656
  48.9377869  45.9674636  34.2551404  46.8436644  46.3344325  34.5155184
  46.0757113  46.1307086  35.2617393  46.8496644  47.8264325  34.1855184
  47.6171057  48.0308704  33.4389678  45.8750509  48.1161134  33.7926898
  47.0611236  48.3980982  35.0891686  46.4816644  45.5084325  33.2175184
  46.4656094  44.4449032  33.4557350  45.5004822  45.8136423  32.8538844
  47.2288989  45.6963024  32.4465162  49.5786644  44.1134325  35.8975184
  50.0856644  43.2434325  35.1615184  50.2216644  44.6644325  36.9305184
  49.7590956  45.3425060  37.5190298  51.5686644  44.3034325  37.2425184
  51.6198140  43.2149616  37.2157973  52.6036644  44.8874325  36.1835184
  52.3468136  44.4965973  35.1989495  52.5716644  46.3994325  36.1495184
  52.8288827  46.7910303  37.1336878  53.2910411  46.7621721  35.4153411
  51.5719771  46.7361257  35.8749942  53.9346644  44.5234325  36.5635184
  54.5577818  44.8762186  35.9240914  51.9646644  44.8494325  38.5975184
  51.4296644  45.8854325  39.0315184  52.9506644  44.1904325  39.2245184
  53.1237481  43.2239681  38.9876892  53.6886644  44.7754325  40.3615184
  53.0436430  45.4748695  40.8933402  54.1406644  43.6954325  41.3335184
  54.7974290  42.9916823  40.8221524  54.6755110  44.1509428  42.1669147
  52.9156644  42.9564325  41.8595184  52.2001723  43.7040265  42.2019728
  52.4856197  42.3961736  41.0292933  53.2376644  42.0054325  42.9985184
  53.9783298  41.2663307  42.6931622  53.6047338  42.5485572  43.8693657
  51.9176644  41.2924325  43.3565184  51.2069199  42.0471342  43.6932202
  51.5375968  40.8129465  42.4544424  52.1006644  40.2534325  44.4405184
  52.4524305  40.6975990  45.2766263  51.2128506  39.8152058  44.6401284
  52.7588963  39.5537830  44.1285563  54.8566644  45.6984325  40.0275184
  55.3946644  46.3844325  40.9285184  55.2396644  45.7394325  38.7585184
  54.8242986  45.1161471  38.0809596  56.2736644  46.6584325  38.3075184
  57.2028369  46.4623700  38.8425858  56.5256644  46.4814325  36.8095184
  57.0230133  45.5271823  36.6358810  55.5743817  46.4968446  36.2776126
  57.3526644  47.5414325  36.3345184  57.5094202  47.4281939  35.3941969
  55.9366644  48.1084325  38.5455184  54.7996644  48.5514325  38.3095184
  56.9266644  48.8714325  39.0125184  58.2486644  48.3994325  39.4545184
  58.6995460  47.7977053  38.6653857  58.1336238  47.7926083  40.3526437
  59.0276644  49.7064325  39.7225184  59.6084267  49.9918750  38.8454000
  59.6950086  49.5850653  40.5757611  57.9366644  50.7294325  40.0255184
  58.2876326  51.7120708  39.7103325  57.6447880  50.7678535  41.0750095
  56.7386644  50.3014325  39.1635184  55.7722319  50.4673817  39.6395092
  56.7786644  51.0354325  37.8245184  56.6256644  52.2434325  37.7895184
  56.9506644  50.2994325  36.7415184  56.9739285  49.2934501  36.8284525
  57.0586644  50.8834325  35.4025184  57.5735172  51.8437791  35.4300885
  57.8666644  49.9254325  34.5525184  58.7734041  49.6914205  35.1103362
  57.2743516  49.0191731  34.4261874  58.2416644  50.4814325  33.1845184
  57.7996644  51.5744325  32.7485184  59.0226644  49.7614325  32.5195184
  55.6456644  50.9974325  34.8285184  54.9956644  49.9684325  34.5375184
  55.1736644  52.2244325  34.6705184  55.6803266  53.0090146  35.0549967
  53.8826644  52.4654325  34.0935184  53.1316172  51.9100511  34.6552825
  53.5186644  53.9314325  34.1195184  53.4848070  54.0763148  35.1993156
  54.2824286  54.5798667  33.6902199  52.1246644  54.2874325  33.5015184
  52.1753846  53.9767550  32.4579630  50.8636644  53.6384325  34.1805184
  50.8120085  53.9490427  35.2240469  49.9626221  53.9632986  33.6602439
  50.9409705  52.5524160  34.1286303  52.0606644  55.7854325  33.3805184
  52.8663337  56.1329841  32.7338313  51.1010952  56.0752146  32.9523193
  52.1681234  56.2351204  34.3676011  53.8046644  51.8484325  32.6895184
  52.7856644  51.2794325  32.2965184  54.8956644  51.8904325  31.9505184
  55.7396065  52.3610393  32.2444407  54.8686644  51.2904325  30.6395184
  54.0254368  51.6784273  30.0680935  56.1546644  51.6164325  29.8915184
  57.0205166  51.4323962  30.5275450  56.2030708  50.9684780  29.0163545
  56.1916644  53.0594325  29.4285184  55.1696644  53.6554325  28.9955184
  57.3826644  53.6534325  29.5495184  57.4949720  54.6157012  29.2639914
  58.1650245  53.1373708  29.9259408  54.6726644  49.7734325  30.6585184
  54.1376644  49.2114325  29.7105184  55.2036644  49.1104325  31.6785184
  55.7181138  49.6146181  32.3865001  55.1046644  47.6694325  31.7965184
  55.3634293  47.1733875  30.8610617  55.9676644  47.1314325  32.8715184
  55.7141565  47.6120411  33.8164253  55.8128383  46.0559924  32.9584545
  57.0125716  47.3294201  32.6326271  53.6396644  47.3744325  32.0635184
  53.1176644  46.3554325  31.5505184  52.9676644  48.2474325  32.8425184
  53.4639319  48.9388475  33.3863595  51.4976644  48.1004325  33.0565184
  51.3772589  47.0491374  33.3180149  50.9936644  48.9764325  34.2565184
  51.0994113  50.0319874  34.0060762  49.9451578  48.7537650  34.4543905
  51.5857661  48.7530233  35.1439885  50.6826644  48.3314325  31.8055184
  49.6846644  47.6254325  31.5265184  51.0896644  49.3234325  31.0285184
  51.8259901  49.9399578  31.3412808  50.4366644  49.6184325  29.7785184
  49.3627666  49.6653417  29.9591900  50.8846644  50.9394325  29.1445184
  51.9719306  50.9248488  29.0687643  50.4521208  50.9972522  28.1456876
  50.4486644  52.1524325  29.9575184  49.3598503  52.2021100  29.9467122
  50.7958331  52.0238825  30.9827261  51.0146644  53.4284325  29.3925184
  52.0777627  53.5033315  29.6212346  50.8730072  53.4580890  28.3121698
  50.2766644  54.5914325  30.0315184  49.2165051  54.3398161  30.0607094
  50.6503485  54.7067024  31.0489525  50.4606644  55.8494325  29.2975184
  50.1140698  55.7429665  28.3548430  49.9515822  56.5877812  29.7620358
  51.4429236  56.0829874  29.2707221  50.6136644  48.4984325  28.8175184
  49.6776644  48.1924325  28.1285184  51.7786644  47.8584325  28.7765184
  52.5792006  48.2084630  29.2831936  51.9696644  46.6904325  27.8765184
  51.6500075  46.9255360  26.8613115  53.4766644  46.3384325  27.8515184
  54.0074074  47.1577160  27.3665591  53.8190965  46.2438770  28.8820035
  53.7326644  45.1414325  27.1615184  54.6757477  44.9622392  27.1706524
  51.0276644  45.5224325  28.3225184  50.3186644  44.8684325  27.4955184
  50.9716644  45.2624325  29.6345184  51.5399387  45.8036417  30.2703298
  50.0826644  44.1984325  30.2055184  50.3543487  43.2330944  29.7784244
  50.2166644  44.1164325  31.7085184  50.1304380  45.1260433  32.1102025
  49.3980974  43.5042313  32.0870127  51.5296644  43.5174325  32.1355184
  52.3235614  44.1982252  31.8283544  51.5552339  43.3952804  33.2183500
  51.7376644  42.1464325  31.4585184  50.9576644  41.1994325  31.6885184
  52.7086644  42.0174325  30.7135184  48.6326644  44.4794325  29.9025184
  47.8996644  43.5684325  29.5875184  48.1986644  45.7434325  30.0135184
  48.8266997  46.4407484  30.3869102  46.8456644  46.1484325  29.6685184
  46.1551968  45.5779734  30.2897512  46.5626644  47.6694325  29.8755184
  46.7905651  47.8756498  30.9212884  47.2807244  48.1863951  29.2389342
  45.1436644  48.1644325  29.5535184  44.9355807  47.9713277  28.5011342
  44.1056644  47.4484325  30.4175184  44.3128330  47.6414610  31.4700962
  43.1100016  47.8166826  30.1702368  44.1529354  46.3758653  30.2291951
  45.0086644  49.6184325  29.8085184  45.7157237  50.1645403  29.1840724
  43.9936285  49.9368005  29.5709367  45.2172325  49.8246300  30.8583188
  46.5276644  45.7984325  28.2195184  45.5026644  45.1984325  27.9295184
  47.3916644  46.2194325  27.3135184  48.2299462  46.7089146  27.5924272
  47.1696644  45.9954325  25.9185184  46.2326467  46.4445581  25.5893023
  48.3056644  46.6474325  25.1705184  49.1855074  46.2940022  25.7081637
  48.3667384  46.3333380  24.1285421  48.2456644  48.1694325  25.2395184
  47.2376644  48.7834325  25.7115184  49.1916644  48.7434325  24.6905184
  47.1366644  44.4954325  25.6105184  46.3696644  44.0754325  24.7625184
  48.0326644  43.7194325  26.2425184  48.7645129  44.1503914  26.7891184
  48.0426644  42.2464325  26.0935184  48.1461340  41.9780596  25.0421530
  49.2176644  41.6504325  26.8675184  50.1271615  42.1353087  26.5128225
  49.0704750  41.8825105  27.9223052  49.3446644  40.1494325  26.6935184
  48.5609305  39.7023590  27.3050635  49.1453182  39.9446306  25.6416537
  50.7006644  39.5494325  27.0825184  50.5561779  38.4699305  27.1260871
  51.3862980  39.7912288  26.2703974  51.2786644  40.0314325  28.3875184
  52.3115233  39.6854307  28.4273397  51.2617585  41.1210037  28.3620659
  50.5776644  39.5714325  29.5445184  50.5935823  38.5618433  29.5685209
  51.0232497  39.9350204  30.3747940  49.6206833  39.8922977  29.5080256
  46.6646644  41.6594325  26.5535184  46.0836644  40.7894325  25.8895184
  46.1276644  42.2024325  27.6485184  46.5855753  43.0196502  28.0261055
  44.9346644  41.6944325  28.3345184  44.9787558  40.6218016  28.5232460
  44.8096644  42.4414325  29.7105184  44.7552684  43.5162250  29.5374230
  43.9067003  42.1104028  30.2235248  45.6801547  42.2168039  30.3268689
  43.7026644  41.9564325  27.4735184  42.7746644  41.1044325  27.3115184
  43.7246644  43.1184325  26.8575184  44.5222072  43.7330567  26.9366503
  42.5556644  43.5904325  26.1125184  41.6525589  43.0753247  26.4398771
  42.3546644  45.1344325  26.2535184  43.2614257  45.6413652  25.9235130
  41.1636644  45.6044325  25.3975184  40.2563926  45.0982430  25.7272618
  41.0387593  46.6815938  25.5080753  41.3517516  45.3665591  24.3505520
  42.1646644  45.4714325  27.7555184  43.0480816  45.0877337  28.2658615
  42.1509825  46.5593042  27.8222077  40.9316644  44.9154325  28.4045184
  40.9448624  43.8275059  28.3386289  40.9052368  45.2151706  29.4521624
  40.0477628  45.2990749  27.8949732  42.6176644  43.2124325  24.6305184
  41.5776644  43.0974325  24.0085184  43.8196644  42.9514325  24.1195184
  44.6384547  42.9672633  24.7106454  43.9956644  42.6334325  22.6875184
  44.9482849  42.1159332  22.5743466  43.1843006  41.9690809  22.3901546
  43.9876644  43.8784325  21.7715184  43.7386644  43.7834325  20.5785184
  44.2336644  45.0584325  22.3135184  44.3525900  45.1482247  23.3124645
  44.2466644  46.2704325  21.5045184  44.7129993  46.0448900  20.5454764
  42.8156644  46.8364325  21.2425184  42.9135060  47.6023870  20.4732071
  42.2138545  46.0122894  20.8594869  42.1286644  47.4404325  22.4845184
  41.9371296  46.6301139  23.1879380  42.8181758  48.1552986  22.9335645
  40.7976644  48.1524325  22.1435184  40.9914955  48.9527705  21.4293843
  40.1080368  47.4323369  21.7030918  40.1756644  48.7284325  23.3355184
  39.4592648  48.1676007  23.7740829  40.5406644  49.8624325  23.9225184
  41.4796644  50.6144325  23.3595184  41.9067671  50.3191155  22.4932210
  41.7622680  51.4781165  23.8002958  39.8886644  50.2884325  25.0205184
  39.1243299  49.7436090  25.3934264  40.1667779  51.1509391  25.4664263
  45.1536644  47.2304325  22.2485184  45.4956644  46.9594325  23.3925184
  45.5446644  48.3194325  21.5805184  45.1570448  48.4265422  20.6540316
  46.4026644  49.3704325  22.0925184  47.2360347  48.9494960  22.6550179
  46.9656644  50.1664325  20.9005184  46.2119391  50.1827410  20.1132882
  47.1699119  51.1856751  21.2284321  48.2496644  49.5704325  20.3335184
  48.9256644  48.7774325  20.9715184  48.5856644  49.9634325  19.1225184
  49.4259917  49.6035159  18.6930888  48.0014994  50.6229681  18.6286917
  45.5146644  50.3034325  22.9135184  44.7636644  51.0604325  22.3575184
  45.5186644  50.1904325  24.2365184  46.1864038  49.6258458  24.7419542
  44.4726644  50.9054325  25.0105184  43.5993668  51.0563977  24.3759635
  44.0476644  50.1234325  26.2445184  44.8898678  49.9177290  26.9051837
  43.2660152  50.6386666  26.8027821  43.3806644  48.5584325  25.8035184
  43.1256647  48.1606622  27.0467610  44.9176644  52.2434325  25.4575184
  44.0816644  53.0894325  25.8645184  46.2276644  52.4534325  25.4195184
  46.8475270  51.6948924  25.1735780  46.8186644  53.6984325  25.9315184
  47.8808713  53.5504720  26.1262576  46.6586644  54.8454325  24.8905184
  45.6384585  54.8176651  24.5077546  46.8400138  55.8070713  25.3705842
  47.6346644  54.6944325  23.7045184  47.2876644  54.1854325  22.6185184
  48.8866644  55.1274325  23.9245184  49.5776732  55.0587742  23.1911068
  49.1315881  55.5197814  24.8223912  46.3086644  54.0184325  27.3655184
  45.8926644  55.1494325  27.6635184  46.3236644  52.9804325  28.2225184
  46.5756005  52.0687168  27.8683968  45.9896644  53.1074325  29.6575184
  46.3104563  52.1797648  30.1314640  46.5861827  53.9355517  30.0402504
  44.5336644  53.3534325  29.9915184  44.2166644  53.6604325  31.1275184
  43.6306644  53.1624325  29.0275184  43.9426645  52.9049656  28.1020639
  42.2286644  53.3744325  29.2375184  42.0148387  53.3017400  30.3038643
  41.7416644  54.7634325  28.7255184  41.8560041  54.8134315  27.6426861
  40.2926644  54.9484325  29.0855184  40.1775900  54.8990148  30.1683003
  39.9500958  55.9195497  28.7281969  39.6989993  54.1609551  28.6212525
  42.5876644  55.8804325  29.3705184  43.6354445  55.7438381  29.1029348
  42.2447605  56.8504591  29.0105673  42.4814477  55.8374235  30.4544783
  41.4176644  52.2654325  28.5685184  41.7326644  51.7764325  27.4725184
  40.3936644  51.8424325  29.2815184  40.2356759  52.2024419  30.2118582
  39.4846644  50.8424325  28.7705184  39.4999729  50.7110730  27.6885713
  39.6806644  49.4434325  29.4725184  38.9185666  48.7583833  29.1010147
  41.1326644  48.8404325  29.1705184  41.8953389  49.5247565  29.5421754
  41.2368819  47.8761991  29.6680056  41.2557540  48.7092148  28.0954696
  39.3096644  49.5124325  30.9725184  40.0513296  50.1394833  31.4673323
  38.3288574  49.9818310  31.0485596  39.2696644  48.0794325  31.6765184
  40.2503176  47.6095826  31.6012832  39.0034908  48.1973843  32.7269175
  38.5278465  47.4519293  31.1825085  38.0466644  51.2804325  28.9715184
  37.7676644  52.2604325  29.6955184  37.1356644  50.5364325  28.3285184
  37.4602288  49.8564574  27.6559181  35.6946644  50.7134325  28.4945184
  35.4044248  51.7211357  28.7918304  34.9556644  50.3524325  27.1905184
  33.8968117  50.5884316  27.2965166  35.5676644  51.1894325  25.9795184
  36.6264610  50.9535979  25.8726004  35.0440244  50.9329183  25.0585945
  35.4515333  52.2548591  26.1782148  35.0126644  48.9244325  26.9945184
  34.5536781  48.6942078  26.1833905  35.1046644  49.9044325  29.6675184
  35.7346644  48.9634325  30.1945184  33.8636644  50.2614325  30.0335184
  33.4222506  51.0835993  29.6471315  33.1546644  49.5174325  31.0635184
  33.7464641  49.5187526  31.9788711  31.7966644  50.1294325  31.3625184
  31.9479335  51.1904306  31.5612642  31.1771535  50.0115628  30.4734666
  31.0946644  49.4774325  32.5665184  30.7446132  48.4956729  32.2475932
  31.8394801  49.3590293  33.3534951  29.9536644  50.2634325  33.0825184
  30.3320751  51.0568644  33.7270105  29.4171624  50.7036290  32.2419876
  29.0076644  49.3714325  33.8775184  28.6409537  48.6090939  33.1901585
  29.6022731  48.8991145  34.6594746  27.8406644  50.0884325  34.4995184
  27.2893158  50.5258026  33.7750725  27.2689333  49.4262851  35.0042802
  28.1802447  50.7945889  35.1367996  33.0326644  48.0704325  30.6335184
  33.2476644  47.1504325  31.4465184  32.6856644  47.8534325  29.3515184
  32.5475664  48.6070749  28.6934520  32.5166644  46.4754325  28.8765184
  31.7413651  45.9804365  29.4613168  32.1126644  46.4504325  27.4185184
  32.7533913  47.1410776  26.8702689  32.2805582  45.4356684  27.0577335
  30.6716644  46.8264325  27.2045184  29.9176644  47.1924325  28.1495184
  30.2716644  46.7704325  26.0255184  33.8316644  45.7154325  29.0095184
  33.8396644  44.5414325  29.4125184  34.9326644  46.3624325  28.6265184
  34.8853407  47.2935233  28.2380219  36.2536644  45.7114325  28.7245184
  36.2165565  44.7518839  28.2087774  37.3396644  46.5464325  28.1075184
  37.3876473  47.4985022  28.6360637  38.2877680  46.0206308  28.2203552
  37.0706644  46.8014325  26.6185184  37.1161813  45.8207540  26.1449164
  36.0526506  47.1863524  26.5586538  38.0206644  47.7594325  25.8985184
  38.4656644  48.8094325  26.4485184  38.3286644  47.4444325  24.7175184
  36.5486644  45.4614325  30.1925184  37.1526644  44.4394325  30.5055184
  36.1586644  46.4004325  31.0895184  35.7760808  47.2934236  30.8133012
  36.3896644  46.1524325  32.5255184  37.4585834  45.9685521  32.6336823
  36.0196644  47.3154325  33.3735184  34.9503378  47.5062783  33.2828627
  36.2626978  47.0991482  34.4138338  36.5741939  48.1950869  33.0467090
  35.6556644  44.9014325  33.0035184  36.2756644  44.0504325  33.6735184
  34.3586644  44.7904325  32.6505184  33.9228058  45.5414856  32.1347222
  33.5366644  43.6814325  33.0695184  33.6265889  43.5234334  34.1442505
  32.1096644  43.9854325  32.7495184  32.0503322  44.3238577  31.7150875
  31.5255369  43.0726547  32.8667019  31.5326644  45.1064325  33.7045184
  31.3174027  44.6000425  34.6454395  32.2740682  45.8872493  33.8740608
  30.2436644  45.7354325  33.1555184  29.9286644  45.4694325  31.9625184
  29.5826644  46.5394325  33.8805184  34.0366644  42.4054325  32.4325184
  34.0006644  41.3734325  33.0415184  34.5636644  42.4764325  31.2135184
  34.5004483  43.2973868  30.6285936  35.1386644  41.2754325  30.6495184
  34.4203999  40.4576103  30.7075038  35.5036644  41.5004325  29.1865184
  34.6226555  41.8313819  28.6366138  36.2817584  42.2605462  29.1165412
  36.0026644  40.2244325  28.6025184  36.9680629  39.9616755  29.0350289
  35.2912747  39.4194542  28.7870089  36.1556644  40.4264325  27.1265184
  35.2112867  40.7069106  26.6600618  36.9097850  41.1804292  26.9009293
  36.5996644  39.1044325  26.5945184  37.6892896  39.0829347  26.6133671
  36.2100171  38.3285189  27.2534815  36.1396644  38.8694325  25.2545184
  36.5009620  39.5880603  24.6436684  36.4645320  37.9660876  24.9406249
  35.1300057  38.8888873  25.2369112  36.3346644  40.7224325  31.4455184
  36.3926644  39.5424325  31.7635184  37.2986644  41.5724325  31.7455184
  37.2361576  42.5222095  31.4077081  38.4596644  41.2004325  32.5745184
  39.0769597  40.4612596  32.0639607  39.3136644  42.4684325  32.8285184
  38.6524800  43.2594966  33.1822867  40.0070980  42.1927820  33.6230413
  40.1286644  42.9844325  31.5725184  39.4538234  43.1926116  30.7422462
  40.8616644  44.2964325  31.9875184  41.5370757  44.0889384  32.8174971
  41.4332333  44.6772163  31.1411063  40.1278616  45.0416827  32.2944971
  41.1576644  41.9874325  31.1655184  40.6708970  41.0471372  30.9066714
  41.7056353  42.3623138  30.3010573  41.8505615  41.8221960  31.9905575
  37.9416644  40.6454325  33.9245184  38.4856644  39.6674325  34.4935184
  36.9276644  41.3244325  34.4485184  36.5467577  42.1184894  33.9540662
  36.3656644  40.9884325  35.7705184  37.1505427  40.9908978  36.5268643
  35.3136644  42.0264325  36.1555184  35.6945606  43.0474675  36.1330502
  34.5100918  41.9228393  35.4263822  34.6706644  41.8214325  37.5595184
  35.4286644  41.4134325  38.6525184  36.4768213  41.1686133  38.4806735
  34.8946644  41.3134325  39.9245184  35.5016802  41.0178542  40.7802438
  33.5236644  41.6064325  40.0985184  33.0861199  41.4939890  41.0904918
  32.7266644  42.0354325  39.0235184  31.6743957  42.2793711  39.1695481
  33.2996644  42.1474325  37.7555184  32.6965145  42.4852797  36.9128029
  35.7716644  39.5744325  35.7285184  36.0376644  38.7374325  36.6015184
  34.9186644  39.3164325  34.7475184  34.5252368  40.0326408  34.1539194
  34.4256644  37.9604325  34.6075184  33.9190267  37.6630879  35.5256707
  33.4456644  37.8454325  33.4535184  32.7144510  38.6512757  33.5171020
  34.0120197  37.9416770  32.5271930  32.7076644  36.5224325  33.4345184
  33.0066644  35.5794325  34.1765184  31.7026644  36.4554325  32.5805184
  31.1609671  35.6060362  32.5084772  31.4803499  37.2538955  32.0033410
  35.5476644  36.9554325  34.4915184  35.4766644  35.9284325  35.1215184
  36.6096644  37.2344325  33.7075184  36.6493313  38.0716707  33.1439955
  37.7286644  36.3114325  33.6485184  37.3778082  35.3279044  33.3359936
  38.7756644  36.7964325  32.6485184  39.0834203  37.8034865  32.9299927
  39.6353504  36.1279582  32.6952316  38.2406644  36.8124325  31.2765184
  37.9692275  35.7865190  31.0276721  37.3462834  37.4354656  31.2727284
  39.1796644  37.3214325  30.2385184  38.8866644  37.0934325  29.0645184
  40.3296644  38.0074325  30.6245184  40.9674765  38.3532620  29.9218812
  40.5202689  38.1557737  31.6052152  38.4266644  36.1404325  35.0185184
  38.7976644  35.0034325  35.3935184  38.5646644  37.2554325  35.7435184
  38.2782025  38.1330300  35.3338094  39.2446644  37.2834325  37.0585184
  40.1883259  36.7428922  36.9849088  39.5386644  38.7314325  37.5225184
  38.6351370  39.3395585  37.4786966  39.8806473  38.6636500  38.5552591
  40.6336644  39.3794325  36.6625184  41.2406644  38.6744325  35.8315184
  40.8426644  40.5684325  36.7855184  38.4856644  36.4914325  38.1225184
  39.1006644  35.7064325  38.8405184  37.1646644  36.6434325  38.1425184
  36.7218646  37.3387391  37.5589292  36.3286644  35.9024325  39.1025184
  36.7224354  35.8920026  40.1188524  34.9356644  36.4434325  39.1355184
  34.5392884  36.4533327  38.1201922  34.0046644  35.5534325  40.0565184
  34.4001717  35.5434265  41.0721831  32.9966369  35.9680752  40.0637654
  33.9753734  34.5352453  39.6685253  34.9676644  37.9114325  39.5505184
  35.5600912  38.4794788  38.8332626  33.9514966  38.3050528  39.5743042
  35.4143008  37.9999211  40.5408651  36.3896644  34.4164325  38.7845184
  36.6746644  33.5874325  39.6465184  36.1646644  34.0924325  37.5115184
  35.9318636  34.8070748  36.8368411  36.2026644  32.7294325  37.0715184
  35.4337774  32.1476173  37.5798520  35.9486644  32.6694325  35.5835184
  35.0352858  33.2215089  35.3620451  36.7932966  33.1540249  35.0937567
  35.8176644  31.2644325  35.0785184  34.6496644  30.8474325  34.8655184
  36.8696644  30.5974325  34.8805184  37.5546644  32.1364325  37.4245184
  37.6296644  31.0604325  38.0595184  38.6356644  32.8304325  37.0705184
  38.5936092  33.6686004  36.5085529  39.9486644  32.3234325  37.4605184
  40.0550090  31.3484373  36.9849405  41.0426644  33.2194325  36.9655184
  40.9549525  34.1969294  37.4397614  42.0103519  32.7822794  37.2116451
  40.9597360  33.3318816  35.8845109  40.1176644  32.1414325  38.9835184
  40.7456644  31.1554325  39.4025184  39.6046644  33.0644325  39.7895184
  39.1892019  33.9041149  39.4121278  39.7416644  32.9474325  41.2675184
  40.8027050  32.8976613  41.5120890  39.1316644  34.1454325  41.9865184
  38.0673177  34.2032713  41.7586572  39.2667755  34.0317179  43.0621179
  39.6241510  35.0590523  41.6535696  39.1246644  31.5644325  41.7205184
  39.7316644  30.8464325  42.4735184  37.9646644  31.2004325  41.1595184
  37.5931863  31.7564836  40.4026099  37.2086644  29.9954325  41.5845184
  37.0768547  29.9762823  42.6663496  35.8136644  29.9244325  40.9145184
  35.9298720  29.9501804  39.8310369  35.0886644  28.5774325  41.3365184
  34.9716778  28.5511702  42.4199045  34.1074316  28.5289998  40.8643564
  35.6881802  27.7255648  41.0155761  35.0316644  31.0904325  41.2965184
  35.5449011  31.9952957  40.9710761  34.0501131  31.0405900  40.8251667
  34.9133166  31.1101595  42.3798953  37.9856644  28.7764325  41.1655184
  38.2206644  27.8334325  41.9635184  38.3846644  28.8124325  39.8885184
  38.1463589  29.6007475  39.3038225  39.0486644  27.7074325  39.2915184
  38.4629947  26.8063584  39.4736057  39.2296644  27.8774325  37.7745184
  39.6825301  28.8546916  37.6072566  39.9135596  27.0982440  37.4379880
  37.9126644  27.7804325  36.9835184  37.2854639  28.6140461  37.2994435
  38.1619668  27.8934576  35.9284470  37.1166644  26.3974325  37.2015184
  37.0300554  26.2435511  38.2771198  36.1231986  26.5283436  36.7725809
  37.7416644  25.1914325  36.5965184  38.2150473  24.5667743  37.2335508
  37.7526644  24.8984325  35.2825184  37.1916644  25.7274325  34.3825184
  36.7545951  26.5834876  34.6927444  37.2103491  25.4896285  33.4010910
  38.2996644  23.7414325  34.8805184  38.6935796  23.1088379  35.5622478
  38.3151074  23.5081676  33.8979464  40.3776644  27.4984325  40.0325184
  40.7686644  26.3424325  40.2215184  41.0056644  28.5984325  40.4805184
  40.6479353  29.5195037  40.2713368  42.2246644  28.4934325  41.2835184
  42.9546489  27.9174782  40.7147490  42.6069524  29.5005960  41.4495810
  42.0006644  27.8134325  42.6425184  42.7486644  26.8864325  43.0375184
  40.9346644  28.2234325  43.3095184  40.3663840  28.9826249  42.9619791
  40.5636644  27.6074325  44.5705184  41.3550904  27.7261901  45.3105459
  39.2696644  28.2574325  45.0945184  38.5893149  28.4277349  44.2601192
  38.5886644  27.3204325  46.1365184  39.2682802  27.1500296  46.9714950
  37.6741238  27.7870938  46.5025013  38.3464872  26.3677187  45.6655769
  39.5856644  29.6064325  45.7205184  40.0248422  29.4229381  46.7011067
  40.3159775  30.1053852  45.0835031  38.3116644  30.5244325  45.8785184
  37.5810414  30.0263122  46.5158300  38.6006306  31.4731478  46.3307761
  37.8721752  30.7087574  44.8982259  40.3526644  26.0714325  44.3585184
  40.9016644  25.2264325  45.1125184  39.5906644  25.7274325  43.3075184
  39.1805373  26.4558850  42.7407274  39.2246644  24.3154325  43.0145184
  38.8366570  23.8483743  43.9197289  38.1536644  24.2284325  41.9205184
  38.6325960  24.6677211  41.0454474  37.9706468  23.1690961  41.7404877
  36.8246644  24.9374325  42.1835184  36.9686750  26.0178776  42.1838360
  35.8516644  24.5534325  41.0675184  35.7067842  23.4731047  41.0668681
  34.8944528  25.0477672  41.2332894  36.2594010  24.8653935  40.1059928
  36.1986644  24.5844325  43.5765184  36.8879101  24.8750925  44.3693340
  35.2577454  25.1208672  43.6990360  36.0144036  23.5115149  43.6312446
  40.4496644  23.4834325  42.6705184  40.4416644  22.3104325  42.9515184
  41.5216644  24.1034325  42.1575184  41.4867148  25.0842354  41.9189739
  42.7336644  23.3474325  41.8185184  42.4730478  22.3040244  41.6410983
  43.4036644  23.9094325  40.5515184  43.5099213  24.9867857  40.6784775
  44.3907225  23.4552156  40.4648972  42.5966644  23.6224325  39.2815184
  42.4557979  22.5448644  39.1972300  41.6256033  24.1093592  39.3712112
  43.3106644  24.1394325  38.0395184  44.3594785  24.3040322  38.2864900
  43.2363300  23.3835966  37.2576706  42.7446644  25.3934325  37.5355184
  43.0052319  26.2570986  37.9897042  41.8886644  25.4434325  36.5265184
  41.5316644  24.3194325  35.9395184  41.9116671  23.4414095  36.2632059
  40.8796100  24.3409056  35.1685038  41.4176644  26.6014325  36.0975184
  41.7122666  27.4589720  36.5424179  40.7653116  26.6234561  35.3267723
  43.7226644  23.2844325  42.9935184  44.6806644  22.5324325  42.9695184
  43.4186644  23.9954325  44.0605184  42.6259698  24.6200420  44.0205484
  44.2626644  24.0334325  45.2335184  45.2726145  23.6974716  44.9985072
  44.3296644  25.4594325  45.7165184  44.6621570  26.0088162  44.8357656
  43.3618847  25.8430857  46.0394932  45.3376644  25.6784325  46.8355184
  45.3496644  24.9964325  47.8475184  46.0996644  26.7064325  46.7005184
  46.7926649  26.9135946  47.4054538  46.0011701  27.3013062  45.8902561
  43.8546644  23.0364325  46.3185184  42.7876644  23.1234325  46.9295184
  44.7306644  22.0694325  46.5355184  45.5603022  22.0052243  45.9630870
  44.4896644  21.0154325  47.5375184  43.5950976  20.4905173  47.2023862
  45.6576644  20.0104325  47.5965184  46.5585779  20.5193239  47.9392782
  45.4102828  19.2052829  48.2883542  45.8309426  19.5952670  46.6036883
  44.2206644  21.5514325  48.9155184  43.4786644  20.9174325  49.6655184
  44.8926644  22.6454325  49.3255184  45.6325377  23.0643276  48.7803454
  44.5766644  23.2284325  50.6295184  44.5136263  22.4344698  51.3736613
  45.6526644  24.2324325  51.0725184  45.6676113  24.9810336  50.2803870
  45.2509418  24.6761175  51.9834864  47.1116644  23.7244325  51.3385184
  47.6060762  23.6164886  50.3731139  47.6254058  24.4852286  51.9261927
  47.1546644  22.3594325  52.1015184  46.8346974  22.5125994  53.1321784
  46.4826909  21.6529916  51.6141865  48.5996644  21.7924325  52.0875184
  48.9620557  21.8251659  51.0600450  49.2183863  22.4376559  52.7111923
  48.6736644  20.3704325  52.6035184  48.1007504  19.7723132  52.0254850
  49.6312783  20.0507921  52.5734259  48.3383094  20.3399544  53.5557301
  43.2076644  23.9464325  50.6535184  42.4956644  23.9434325  51.6875184
  42.8486644  24.6104325  49.5655184  43.4594939  24.6582175  48.7625843
  41.6336644  25.4134325  49.5575184  41.4262975  25.7325408  50.5789233
  41.7346644  26.6804325  48.6495184  41.8806053  26.3095898  47.6349859
  40.8255406  27.2804473  48.6892197  42.9476644  27.5534325  49.0595184
  43.8514449  26.9505239  48.9712981  43.0736644  28.7894325  48.1765184
  42.1703862  29.3931160  48.2645721  43.9351247  29.3770310  48.4938746
  43.2057146  28.4832929  47.1387604  42.8776644  27.9694325  50.5415184
  42.8695142  27.0785553  51.1695079  43.7458203  28.5801372  50.7894019
  41.9680704  28.5442983  50.7154926  40.3486644  24.6704325  49.2225184
  39.3106644  24.9434325  49.7945184  40.3976644  23.7954325  48.2415184
  41.2768389  23.5496627  47.8093740  39.1956644  23.1604325  47.7565184
  38.5410747  23.8974368  47.2912914  39.5556644  22.1134325  46.7245184
  40.2090173  22.5845343  45.9901532  40.0984436  21.3185217  47.2359943
  38.3546644  21.5324325  46.0275184  37.7280376  20.9796502  46.7274266
  37.7639609  22.3154396  45.5520488  38.8756644  20.6024325  44.9865184
  39.6206478  21.1487347  44.4080268  39.3559391  19.7725815  45.5049612
  37.7816644  20.0524325  44.0325184  37.5974191  20.8215341  43.2824272
  38.1957411  19.1670065  43.5501694  36.5276644  19.7054325  44.6905184
  36.1435875  20.5258494  45.1371734  35.8726984  19.3576196  44.0048466
  36.6980989  18.9924724  45.3853127  38.4166644  22.4684325  48.8905184
  37.2216644  22.6374325  48.9425184  39.0916644  21.6744325  49.7695184
  40.4756644  21.2794325  49.9745184  41.1128631  22.1637744  49.9703494
  40.7856398  20.6051330  49.1761861  40.4376644  20.5884325  51.3405184
  40.6901186  21.3135221  52.1142179  41.1666271  19.7781199  51.3509226
  39.0606644  20.0644325  51.5175184  38.7802312  20.0816655  52.5706847
  38.9662920  19.0486931  51.1335040  38.1626644  21.0024325  50.7285184
  37.4474805  20.4182809  50.1494008  37.4046644  22.0044325  51.6185184
  36.2276644  21.8054325  51.9435184  38.0446644  23.1304325  51.9305184
  39.0083639  23.2683116  51.6614981  37.4206644  24.1224325  52.7825184
  36.9117270  23.6309644  53.6116994  38.4626644  25.1234325  53.3615184
  38.9357240  25.6835870  52.5549574  37.7376644  26.0734325  54.2725184
  37.2646997  25.5140173  55.0796492  38.4464410  26.7871088  54.6925210
  36.9752071  26.6092546  53.7071378  39.5726644  24.3324325  54.1455184
  40.0727561  23.6398761  53.4684837  40.3018973  25.0340018  54.5506351
  39.1138952  23.7743074  54.9616851  36.2666644  24.8334325  52.0485184
  35.1676644  24.9084325  52.5515184  36.5396644  25.2724325  50.8225184
  37.4519246  25.0673912  50.4406300  35.6176644  25.9754325  50.0145184
  35.3316967  26.9248652  50.4671763  36.3146644  26.2584325  48.6875184
  37.1806165  26.8822158  48.9091499  36.6503273  25.2930702  48.3086965
  35.4656644  26.9324325  47.6535184  35.2996644  28.3674325  47.6265184
  35.7971264  28.9814589  48.3772531  34.5206644  28.9584325  46.6625184
  34.4071247  30.0418524  46.6249446  33.9016644  28.1594325  45.7035184
  33.0866644  28.7374325  44.7125184  33.0241410  29.6923953  44.7882577
  34.0526644  26.7724325  45.7355184  33.5479383  26.1544325  44.9929363
  34.8356644  26.1854325  46.7005184  34.9632053  25.1030142  46.7148059
  34.3976644  25.0914325  49.7705184  33.2566644  25.5294325  49.9525184
  34.6586644  23.8154325  49.4895184  35.6102878  23.5057344  49.3531388
  33.5566644  22.8584325  49.1985184  32.8290359  23.3341431  48.5409811
  34.0766644  21.6074325  48.5205184  35.0667982  21.4219039  48.9368278
  33.4276632  20.7585934  48.7358547  34.1856644  21.7904325  47.0275184
  33.7746644  22.8224325  46.4975184  34.6386644  20.8864325  46.3655184
  32.7116644  22.5604325  50.4405184  31.5036644  22.3154325  50.3385184
  33.2916644  22.7584325  51.6255184  34.2908508  22.8941436  51.6830369
  32.5426644  22.6444325  52.8585184  31.8384535  21.8167787  52.7738101
  33.4636644  22.3854325  54.0655184  32.8629661  21.9678073  54.8735098
  34.2249145  21.6638337  53.7690501  34.0766644  23.5514325  54.5005184
  34.6416962  23.3549737  55.2513465  31.6226644  23.7844325  53.1565184
  30.7346644  23.6164325  53.9835184  31.8346644  24.9494325  52.5265184
  32.5785730  24.9588808  51.8434298  31.1016644  26.2084325  52.7825184
  30.8778830  26.2699341  53.8475248  31.9156644  27.4844325  52.3665184
  32.0773973  27.4750040  51.2886256  31.3098450  28.3499001  52.6349372
  33.2796644  27.5654325  53.0915184  33.8172969  26.6381520  52.8935209
  34.1076644  28.7264325  52.6435184  33.5708487  29.6541608  52.8416290
  35.0524727  28.7307867  53.1870430  34.3043327  28.6421907  51.5747222
  33.0096644  27.7504325  54.6085184  32.4360774  26.9021780  54.9820981
  33.9581590  27.8103410  55.1422506  32.4448487  28.6688999  54.7682050
  29.7816644  26.2004325  52.0375184  29.6576644  25.5354325  51.0165184
  28.7836644  26.8634325  52.6185184  28.8895668  27.1468487  53.5821362
  27.5906644  27.2814325  51.9055184  27.0776378  26.4307436  51.4569302
  26.6616644  27.9294325  52.9195184  25.8214151  28.3240466  52.3482391
  26.2997461  27.1882931  53.6321386  27.3446644  29.0694325  53.6735184
  27.2066644  30.2004325  53.1945184  28.0516644  28.8164325  54.7005184
  27.9696644  28.3684325  50.8875184  29.0786644  28.9034325  50.9405184
  27.0176644  28.7594325  50.0535184  26.0679887  28.4306888  50.1542311
  27.3416644  29.5984325  48.9025184  28.2233011  29.1692357  48.4264869
  26.1826644  29.5564325  47.9105184  25.2948223  29.9912118  48.3696517
  26.4459108  30.1257741  47.0190860  25.9783016  28.5222721  47.6333047
  27.7016644  31.0654325  49.2905184  28.4896644  31.7294325  48.6035184
  27.1476644  31.5404325  50.3765184  26.4720065  31.0231852  50.9206150
  27.4456644  32.9264325  50.7695184  27.4133535  33.5607407  49.8836808
  26.4616644  33.4754325  51.7985184  26.4819748  32.8523524  52.6926425
  26.8706644  34.9424325  52.1745184  26.8501357  35.5662591  51.2809190
  26.1700169  35.3384314  52.9096227  27.8764429  34.9434079  52.5946496
  25.0866644  33.4724325  51.2535184  24.7988649  32.4526923  50.9977773
  24.3982337  33.8671419  52.0007582  25.0481497  34.0952478  50.3598079
  28.8966644  32.9344325  51.2665184  29.6906644  33.7464325  50.7955184
  29.2536644  31.9894325  52.1535184  28.5839089  31.3290572  52.5215285
  30.6426644  31.9384325  52.6635184  30.9387616  32.9054204  53.0701632
  30.7186644  30.8984325  53.7755184  30.1408107  30.0173453  53.4964668
  31.7572056  30.6130656  53.9431429  30.1596644  31.4824325  55.0195184
  30.6942903  32.4035674  55.2514374  29.1038732  31.7048435  54.8647915
  30.3016644  30.5444325  56.1305184  29.7714013  29.6234134  55.8883534
  31.3592375  30.3259982  56.2785895  29.7586644  31.0834325  57.3695184
  30.3252899  31.7212399  57.9101075  28.5376644  30.7454325  57.8425184
  27.7306644  29.9794325  57.1425184  28.0226927  29.6364932  56.2385205
  26.8223439  29.7373925  57.5119372  28.0936644  31.1854325  59.0025184
  28.6728597  31.7933846  59.5637911  27.1762097  30.9126928  59.3249912
  31.6246644  31.6174325  51.5075184  32.7396644  32.1084325  51.5155184
  31.2276644  30.7994325  50.5185184  30.3750080  30.2667576  50.6151303
  32.0586644  30.5854325  49.3045184  33.0237336  30.1709243  49.5959348
  31.3856644  29.6184325  48.3315184  30.3301547  29.8862283  48.2837285
  31.8428865  29.7692972  47.3536187  31.5216644  28.1404325  48.7385184
  32.5536179  27.9911823  49.0561614  30.8545886  27.9806412  49.5856186
  31.1736644  27.1224325  47.6015184  32.0115335  27.1419353  46.9046009
  31.1173600  26.1416941  48.0738334  29.9386644  27.3544325  46.8555184
  30.0708569  27.8743303  45.9997551  28.7036644  26.9464325  47.1705184
  28.4596644  26.2954325  48.2975184  29.2158820  26.0990568  48.9375743
  27.5184669  25.9982717  48.5118605  27.6766644  27.2184325  46.3385184
  27.8452027  27.7281386  45.4830100  26.7440995  26.9110801  46.5750686
  32.3776644  31.9324325  48.6075184  33.4506644  32.1094325  48.0735184
  31.4246644  32.8764325  48.6105184  30.5088441  32.6864730  48.9916850
  31.6736644  34.2114325  48.0075184  32.0400480  34.0891528  46.9882491
  30.4036644  35.0334325  47.9695184  29.8918059  35.0065147  48.9314829
  30.6157689  36.0681276  47.7002272  29.2156644  34.4344325  46.7545184
  28.2876866  35.3544545  47.0021368  32.7466644  34.9894325  48.7565184
  33.5976644  35.6364325  48.1625184  32.7156644  34.8644325  50.0725184
  31.8972847  34.4662998  50.5105189  33.7846644  35.3854325  50.9365184
  33.8288439  36.4633657  50.7809318  33.4006644  35.1044325  52.4655184
  33.3614604  34.0290574  52.6391028  34.1522466  35.5499789  53.1172184
  32.4265317  35.5427156  52.6824806  35.1656644  34.8334325  50.5875184
  36.1826644  35.6004325  50.4685184  35.2196644  33.5114325  50.3885184
  34.4383890  32.9225090  50.6392717  36.4276644  32.8874325  49.9705184
  37.1512515  33.2037637  50.7218209  36.3076644  31.3344325  50.0175184
  35.5932743  31.0017418  49.2644820  37.2814369  30.8879940  49.8161232
  35.9642262  31.0257500  51.0048707  36.9456644  33.3554325  48.6355184
  38.1706644  33.5164325  48.4685184  36.0456644  33.5314325  47.6645184
  35.0765980  33.3078974  47.8407054  36.4156644  33.9914325  46.3385184
  37.2106981  33.3259977  46.0020408  35.2126644  33.9294325  45.3205184
  34.3585510  34.4607800  45.7403523  35.6366644  34.6124325  43.9285184
  36.4904888  34.0813052  43.5078186  34.8005906  34.5656726  43.2307398
  35.9068338  35.6541124  44.1017539  34.8756644  32.4724325  45.0235184
  35.5716904  32.1280645  44.2586267  35.0378155  31.9083967  45.9420336
  33.4796644  32.2634325  44.5535184  33.3168897  32.8268292  43.6347212
  33.3148531  31.2029655  44.3628714  32.7830144  32.6071638  45.3181278
  36.9406644  35.4104325  46.4095184  37.9466644  35.7454325  45.7565184
  36.2786644  36.2214325  47.2105184  35.4688919  35.8744079  47.7044230
  36.6626644  37.6134325  47.4055184  36.6270431  38.1683046  46.4679965
  35.6396644  38.2484325  48.4005184  34.6279869  38.0178853  48.0666683
  35.8052488  37.8112824  49.3851918  35.7816644  39.7404325  48.5075184
  36.8836644  40.2604325  48.7315184  34.6856644  40.4414325  48.3405184
  34.7201289  41.4490127  48.4012965  33.8123811  39.9703590  48.1519262
  38.0726644  37.6364325  47.9635184  38.9416644  38.2944325  47.4195184
  38.3146644  36.9024325  49.0555184  37.5562566  36.4478400  49.5436399
  39.6626644  36.8074325  49.6235184  39.9659213  37.7785271  50.0148106
  39.6976644  35.7974325  50.7535184  38.8182832  35.1610276  50.6546405
  40.5974328  35.1947825  50.6297050  39.7046644  36.4324325  52.1125184
  40.3628800  37.3011245  52.0974472  38.6912472  36.7493366  52.3588097
  40.1876644  35.4774325  53.1855184  39.8696644  34.2994325  53.1715184
  40.9456644  35.9724325  54.0995184  41.2948921  35.3785194  54.8380364
  41.1879434  36.9526178  54.0742392  40.7516644  36.4624325  48.5875184
  41.7716644  37.1454325  48.5035184  40.5316644  35.3844325  47.8325184
  39.7412975  34.8014583  48.0682317  41.4646644  34.9084325  46.8095184
  42.4462831  34.8690365  47.2817173  41.1186644  33.5194325  46.2895184
  40.0778010  33.5263377  45.9660141  42.0116644  33.1064325  45.1215184
  43.0527159  33.0988473  45.4444041  41.7296314  32.1095799  44.7826337
  41.8909235  33.8156785  44.3026818  41.3736644  32.5104325  47.4235184
  40.7462672  32.7588890  48.2795232  41.1332874  31.5052949  47.0770836
  42.4222806  32.5515540  47.7181605  41.6426644  35.9454325  45.6895184
  42.7866644  36.1914325  45.3095184  40.5456644  36.5904325  45.2365184
  39.6512892  36.2373231  45.5455591  40.5616644  37.7194325  44.2885184
  40.9440949  37.3821615  43.3251418  39.1396644  38.2884325  44.0835184
  38.4021478  37.4997479  43.9347056  38.8866586  38.8576815  44.9779700
  39.0046644  39.2124325  42.9435184  38.4656644  38.7724325  41.7255184
  38.1713358  37.7302837  41.6014353  38.3036644  39.6894325  40.6515184
  37.8624425  39.3566899  39.7119939  38.7046644  40.9994325  40.7985184
  38.6149448  41.6944912  39.9636869  39.2226644  41.4334325  42.0095184
  39.5309278  42.4720077  42.1296656  39.3486644  40.5444325  43.0695184
  39.7270444  40.8924579  44.0306671  41.5056644  38.8204325  44.7625184
  42.3506644  39.3094325  43.9915184  41.3846644  39.2154325  46.0275184
  40.7189059  38.7841490  46.6527060  42.2016644  40.3014325  46.5355184
  42.2138367  41.1266645  45.8235190  41.6276644  40.8064325  47.8585184
  40.6239816  41.1826810  47.6606367  41.5690422  39.9566704  48.5386418
  42.4606644  41.9004325  48.4895184  43.4930730  41.5994460  48.6673960
  42.4395941  42.7126472  47.7629062  41.8726644  42.3994325  49.7885184
  40.9556644  41.7954325  50.3675184  42.4656644  43.4424325  50.3115184
  42.1257474  43.8300665  51.1800215  43.2604225  43.8547945  49.8441658
  43.6336644  39.8604325  46.7535184  44.5736644  40.6164325  46.4335184
  43.7936644  38.6824325  47.3365184  43.0263341  38.0269161  47.3765415
  45.0506644  38.3094325  47.9595184  45.6683092  39.1965078  48.0999155
  44.8066644  37.6594325  49.3295184  44.1026164  36.8455779  49.1561504
  45.7661242  37.2484450  49.6435667  44.2686644  38.5694325  50.4135184
  44.8689764  39.4769098  50.4784111  43.2320091  38.8342906  50.2054368
  44.3536644  37.6694325  52.0225184  46.1366644  37.6454325  52.1865184
  46.5137238  38.6678768  52.2096001  46.4102045  37.1368960  53.1110005
  46.5729302  37.1168935  51.3389218  45.8746644  37.3364325  47.1095184
  47.1176644  37.1924325  47.3165184  45.1876644  36.6524325  46.1915184
  44.2310378  36.8929947  45.9745051  45.7816644  35.5714325  45.4975184
  45.2160465  35.3698562  44.5878247  46.8084540  35.8281411  45.2369363
  45.7886644  34.3134325  46.3685184  45.7756644  34.3134325  47.6275184
  45.8056644  33.2034325  45.6785184  45.7407165  33.2439554  44.6714241
  45.6866644  31.9124325  46.3225184  44.9795798  31.9280390  47.1519080
  45.1566644  30.9734325  45.2495184  44.0728357  31.0857558  45.2777682
  45.5378415  31.3676098  44.3074843  45.4966644  29.5814325  45.3585184
  46.4851405  29.4610726  45.8018346  44.7544860  29.0905311  45.9880312
  45.4826644  28.9644325  44.0005184  44.7556644  29.4754325  43.1095184
  46.2306644  27.9684325  43.8235184  46.9516644  31.4524325  47.1095184
  46.8306644  30.7124325  48.0955184  48.1326644  31.9784325  46.7775184
  48.2267176  32.4935588  45.9138644  49.2966644  31.8914325  47.6655184
  49.6026054  30.8559296  47.8146260  50.4796644  32.6724325  47.0735184
  50.1418813  33.6818153  46.8386801  51.6506644  32.7424325  48.0445184
  51.9893179  31.7333706  48.2794813  52.4675846  33.3025856  47.5895800
  51.3344569  33.2415156  48.9605039  50.8866644  32.0434325  45.8655184
  51.6263143  32.5247584  45.4875718  48.9586644  32.5484325  48.9865184
  48.9396644  31.9264325  50.0665184  48.7116644  33.8414325  48.8585184
  48.8707374  34.2397018  47.9440915  48.2336644  34.7214325  49.9245184
  49.1444289  35.1359914  50.3566620  47.6913097  35.5071876  49.3986480
  47.3666644  34.1844325  51.0315184  47.3796644  34.7214325  52.1565184
  46.6056644  33.1324325  50.7415184  46.6296885  32.7058789  49.8263276
  45.6546644  32.6054325  51.7315184  45.8746509  33.0664259  52.6944255
  44.1786644  32.9084325  51.3625184  43.5539424  32.7300842  52.2377404
  44.0226644  34.3174325  50.9225184  44.6467773  34.4964265  50.0469927
  42.9794483  34.5061077  50.6691367  44.3270495  34.9859243  51.7278569
  43.7626644  32.0114325  50.2395184  43.8570995  30.9710818  50.5507330
  42.7259202  32.2179709  49.9738061  44.4014965  32.1908633  49.3747647
  45.7606644  31.0924325  51.9825184  45.2886644  30.6184325  53.0345184
  46.3026644  30.3304325  51.0235184  46.6218820  30.7192916  50.1477399
  46.4286644  28.9074325  51.2265184  45.4735007  28.4105372  51.3963906
  47.1186644  28.2444325  50.0375184  48.0807724  28.7252452  49.8606927
  47.2752640  27.1870657  50.2509485  46.4934403  28.3468146  49.1505506
  47.2376644  28.7474325  52.4825184  47.1606644  27.7134325  53.1505184
  48.0146644  29.7874325  52.8005184  48.0332881  30.6063407  52.2096362
  48.8526644  29.7774325  53.9965184  49.4223785  28.8481723  53.9957309
  49.5374238  30.6228756  53.9299615  48.0766644  29.8754325  55.2835184
  48.5666644  29.4014325  56.2865184  46.8686644  30.4864325  55.2595184
  46.4996658  30.6968098  54.3431774  46.0086644  30.7774325  56.4585184
  46.5597576  31.3876945  57.1740432  44.7656644  31.5324325  56.0345184
  44.4333293  31.1762521  55.0594347  43.9765931  31.3693553  56.7685976
  44.9346644  32.9854325  55.9155184  46.1026644  33.5404325  55.3845184
  46.9085681  32.8780022  55.0685989  46.2436644  34.9104325  55.2575184
  47.1567314  35.3397418  54.8450831  45.2076644  35.7404325  55.6615184
  45.3107668  36.8176814  55.5311170  44.0486644  35.2154325  56.2265184
  43.2516682  35.8674373  56.5839914  43.9166644  33.8294325  56.3315184
  43.0046781  33.3985706  56.7447241  45.4536644  29.4964325  57.1145184
  44.2146644  29.3624325  57.3495184  46.3576644  28.5934325  57.4325184
  47.3226199  28.8287207  57.2492162  46.0616644  27.2874325  57.9255184
  45.6014418  26.6891347  57.1391761  47.3836644  26.6194325  58.3415184
  47.7436969  27.1140138  59.2436637  47.2176644  25.1364325  58.6105184
  46.8580754  24.6410667  57.7086270  48.1777161  24.7095773  58.9006812
  46.4977006  24.9910841  59.4158920  48.3066644  26.7774325  57.2505184
  49.1451497  26.3696687  57.4791479  45.0476644  27.3014325  59.0575184
  44.0836644  26.6024325  58.9715184  45.2536644  28.1184325  60.1025184
  46.0881501  28.6813565  60.1852804  44.3516644  28.0424325  61.2515184
  44.1547721  26.9980126  61.4934270  44.9886644  28.7404325  62.5135184
  45.0700702  29.8224381  62.4099032  44.3259197  28.5045312  63.3461168
  46.3866644  28.1684325  62.8195184  46.5996644  26.9574325  62.6745184
  47.3526644  29.0234325  63.1435184  48.2795176  28.6790438  63.3495264
  47.1548985  30.0131319  63.1820477  42.9476644  28.5184325  60.9155184
  41.9876644  27.9424325  61.3585184  42.8346644  29.5684325  60.1115184
  43.6620565  30.0348497  59.7680411  41.5466644  30.0754325  59.7075184
  40.9604874  30.2758127  60.6043704  41.6316644  31.3724325  58.8735184
  42.4422051  31.2718510  58.1517107  40.6890845  31.5102289  58.3437493
  41.8696644  32.4694325  59.6845184  41.9182864  33.2618456  59.1447804
  40.8176644  29.0294325  58.8525184  39.6086644  28.8654325  59.0145184
  41.5626644  28.3744325  57.9355184  42.5219130  28.6577031  57.7951647
  41.0226644  27.3124325  57.0885184  40.1863960  27.6935658  56.5024367
  42.0856644  26.8084325  56.1415184  42.9391273  26.6957298  56.8100978
  41.7882346  25.8298287  55.7647290  42.4776644  27.7204325  54.9545184
  42.6143508  28.7468246  55.2950133  43.8426644  27.1764325  54.3535184
  43.7066320  26.1501734  54.0123638  44.1447244  27.8011726  53.5129470
  44.6151605  27.2039164  55.1220201  41.3446644  27.8074325  53.9105184
  40.4492526  28.2164376  54.3785483  41.6541400  28.4559372  53.0909041
  41.1291503  26.8114636  53.5236094  40.4706644  26.1774325  57.9455184
  39.3336644  25.7704325  57.7635184  41.2686644  25.6814325  58.8965184
  42.2390272  25.9507388  58.9737809  40.7686644  24.6194325  59.7785184
  40.4563690  23.7687384  59.1728036  41.8366644  24.1514325  60.7625184
  42.7416571  23.9727607  60.1818603  42.0071201  24.9750753  61.4558130
  41.4826644  22.9044325  61.5395184  40.4454254  22.9921118  61.8628579
  41.5829417  22.0503726  60.8697213  42.4096644  22.6964325  62.7985184
  41.9935239  21.9204835  63.4410363  43.4097950  22.4044834  62.4782001
  42.5076644  23.9454325  63.5705184  41.7047052  24.1649542  64.1425028
  43.5506644  24.7814325  63.5875184  43.4256644  25.9124325  64.2995184
  42.5659191  26.1013701  64.7947361  44.1919215  26.5693645  64.3368003
  44.6946644  24.4884325  62.9255184  44.7677155  23.6243584  62.4076964
  45.4699160  25.1352386  62.9524533  39.4756644  25.1224325  60.4655184
  38.4526644  24.4544325  60.4905184  39.4656644  26.3424325  60.9885184
  40.2676331  26.9553668  60.9530636  38.3006644  26.7734325  61.7475184
  38.0273361  26.0130777  62.4791272  38.6146644  28.0684325  62.4855184
  39.0437441  28.7662152  61.7664293  37.6760226  28.4711318  62.8661558
  39.6326644  27.8594325  63.6955184  39.1559509  27.3884186  64.5551643
  40.5055623  27.2771063  63.4004803  40.1546644  29.5204325  64.1455184
  41.5526644  29.2684325  65.2175184  42.3314421  28.7284294  64.6790010
  41.9397534  30.2337755  65.5436711  41.2442699  28.6885249  66.0874042
  37.0166644  26.9054325  60.8675184  35.8846644  26.6044325  61.2855184
  37.2356644  27.3594325  59.6345184  38.1609007  27.6332983  59.3361318
  36.1506644  27.5104325  58.7095184  35.3436608  28.0797853  59.1706927
  36.6236644  28.2554325  57.4655184  37.5815816  27.7885979  57.2362602
  35.9259582  28.0722003  56.6483697  36.8186644  29.7524325  57.6385184
  37.4102374  29.9794634  58.5254227  37.5616644  30.1974325  56.4155184
  36.9704714  29.9711378  55.5281738  37.7397290  31.2714764  56.4686539
  38.5159796  29.6738111  56.3589182  35.4016644  30.5084325  57.8545184
  34.9126723  30.1169566  58.7465570  35.5745157  31.5778464  57.9752557
  34.7633408  30.3397210  56.9872362  35.6136644  26.1394325  58.3485184
  34.3806644  25.9344325  58.3545184  36.5456644  25.2064325  58.1085184
  37.5290231  25.4345382  58.0757658  36.1396644  23.8454325  57.7735184
  35.4376358  23.9100703  56.9422080  37.2896644  22.8944325  57.3755184
  38.0047048  23.3886865  56.7178487  37.8094604  22.5100666  58.2531146
  36.6246644  21.7334325  56.6265184  36.1246926  21.1225112  57.3781195
  35.8789374  22.1929749  55.9778166  37.4886644  20.8604325  55.8075184
  38.6896644  21.0454325  55.7455184  36.8596644  19.8434325  55.1515184
  37.3955846  19.2109549  54.5745755  35.8607785  19.7273606  55.2456234
  35.3446644  23.2494325  58.9115184  34.3566644  22.5424325  58.6705184
  35.7936644  23.5474325  60.1335184  36.6611154  24.0528624  60.2438299
  35.0906644  23.1014325  61.3405184  34.7926222  22.0588738  61.2294263
  35.9886644  23.2214325  62.5545184  36.3235926  24.2563802  62.6238402
  35.3977506  22.9715275  63.4356929  37.2006644  22.2994325  62.4775184
  36.9638517  21.2376880  62.5462149  37.6907084  22.5009703  61.5249737
  38.1516644  22.6544325  63.5935184  38.4706644  23.8114325  63.8325184
  38.5356644  21.6624325  64.3405184  39.1725411  21.8282070  65.1066831
  38.1953616  20.7305062  64.1512864  33.8136644  23.8494325  61.5935184
  33.0826644  23.4294325  62.4975184  33.5776644  24.9644325  60.8635184
  34.2753363  25.2229860  60.1805080  32.4336644  25.8334325  61.0385184
  32.5005180  26.6727070  60.3462410  31.1066644  25.0614325  60.7595184
  30.9680562  24.3248289  61.5509110  30.2848356  25.7771085  60.7819973
  31.1296644  24.3474325  59.3905184  31.6080987  24.9745193  58.6382129
  31.6596581  23.3976071  59.4615148  29.6726644  24.0904325  58.9895184
  29.1820168  23.5261846  59.7826062  29.1677138  25.0476242  58.8594862
  29.6056644  23.3004325  57.6885184  30.3266734  22.4833579  57.6633054
  28.6071633  22.9093608  57.4931786  29.9556644  24.2994325  56.6525184
  30.8810364  24.6616176  56.8330960  29.9371753  23.8614347  55.7426195
  29.2874349  25.0564288  56.6754278  32.3546644  26.4684325  62.4205184
  31.2476644  26.7314325  62.9545184  33.5396644  26.6944325  63.0035184
  34.3681976  26.3025668  62.5791679  33.6986644  27.5214325  64.2165184
  32.8832036  27.3575810  64.9209867  34.9956644  27.1024325  64.8725184
  35.8108861  27.2553465  64.1653196  35.1585810  27.7229776  65.7537005
  34.9506644  25.6504325  65.2815184  34.0550838  25.4815394  65.8794409
  34.9091207  25.0337496  64.3836997  36.1146644  25.2984325  66.0515184
  37.0423837  25.3169437  65.4795978  36.2363791  25.8890081  66.9595412
  35.8336644  23.9634325  66.4145184  34.9847288  23.5666723  66.0377038
  36.5886644  23.2124325  67.1865184  37.7196644  23.7164325  67.6955184
  37.9851386  24.6676711  67.4839326  38.3022923  23.1431274  68.2887854
  36.2026644  21.9654325  67.4515184  35.3410952  21.6127328  67.0598533
  36.7733157  21.3783075  68.0429067  33.7836644  28.9684325  63.7655184
  34.8766644  29.5474325  63.6675184  32.6286644  29.5274325  63.4615184
  31.7605436  29.0965238  63.7457425  32.5676644  30.7454325  62.6965184
  33.1370524  30.6355822  61.7735724  31.1396644  31.0624325  62.3455184
  30.5137055  31.1911503  63.2285283  31.1186019  31.9749372  61.7497068
  30.4956644  29.9934325  61.5155184  29.2406644  29.4104325  61.7565184
  28.7065724  29.7320998  62.6505965  28.9436644  28.5144325  60.7605184
  28.1161330  27.9365107  60.7244925  29.9806644  28.4874325  59.8495184
  30.1276644  27.7124325  58.6955184  29.3185410  27.0355045  58.4213166
  31.2916644  27.8534325  57.9735184  31.4392254  27.2618121  57.0700191
  32.3176644  28.7624325  58.3825184  33.2376953  28.8646739  57.8070280
  32.1726644  29.5394325  59.5215184  32.9448917  30.2728191  59.7537032
  30.9896644  29.3834325  60.3025184  33.1576644  31.9114325  63.4475184
  33.9186644  32.6994325  62.8745184  32.7896644  32.0384325  64.7095184
  32.1209587  31.4027844  65.1204727  33.2856644  33.1654325  65.5335184
  33.1200560  34.1068391  65.0096611  32.5546644  33.2144325  66.8605184
  32.4222908  32.2042532  67.2479644  33.1892150  33.7833855  67.5400314
  31.2106644  33.8884325  66.7455184  30.5856644  33.8844325  65.6755184
  30.7506644  34.4044325  67.7795184  34.7806644  33.0874325  65.7535184
  35.4676644  34.0734325  65.6265184  35.2886644  31.8954325  66.0175184
  34.6732511  31.1126897  66.1868688  36.7046644  31.6814325  66.1155184
  37.1463869  32.3376079  66.8654612  36.9416644  30.2274325  66.5365184
  36.3540989  29.5844032  65.8812479  38.0010421  30.0053782  66.4080239
  36.5366644  29.9724325  68.0065184  37.3495972  30.3897416  68.6007357
  35.6057129  30.4807360  68.2576280  36.4006644  28.4934325  68.3055184
  37.4536644  27.8764325  68.5075184  35.2756644  27.9284325  68.2675184
  37.4726644  31.9694325  64.8145184  38.5716644  32.5864325  64.8685184
  36.9416644  31.4374325  63.6755184  36.1354404  30.8315299  63.7301477
  37.4966644  31.7144325  62.3845184  38.5135664  31.3334851  62.2902387
  36.6346644  31.1044325  61.2575184  35.6155387  31.4835894  61.3331683
  37.0533458  31.3798978  60.2895695  36.6258766  30.0186843  61.3532939
  37.5466644  33.2044325  62.2235184  38.5826644  33.7294325  61.8115184
  36.4226644  33.8794325  62.4865184  35.5663430  33.3912841  62.7068005
  36.3646644  35.3634325  62.2945184  36.6250406  35.5210144  61.2478707
  34.9516644  35.9124325  62.5365184  34.6802151  35.7700890  63.5825364
  34.9284285  36.9755569  62.2970883  34.2416200  35.3820239  61.9020084
  37.4566644  36.1134325  63.1405184  38.1606644  37.0294325  62.6235184
  37.6046644  35.7224325  64.4315184  36.9173341  35.1339231  64.8802201
  38.6986644  36.2484325  65.2405184  38.8025628  37.3328265  65.2778525
  38.5996644  35.7094325  66.6925184  38.4395284  34.6319484  66.6539972
  39.8956644  36.0114325  67.4925184  40.0562290  37.0888235  67.5318690
  39.7968214  35.6220907  68.5058020  40.7450467  35.5356927  67.0022909
  37.3656644  36.1654325  67.3535184  36.5004494  35.8100237  66.7938848
  37.3289055  35.7695540  68.3684217  37.3527474  37.2548008  67.3883121
  40.1126644  35.9584325  64.5925184  40.9616644  36.8664325  64.4575184
  40.3506644  34.7244325  64.1655184  39.6964172  33.9774748  64.3502189
  41.6206644  34.3894325  63.5615184  42.4336316  34.7214962  64.2072096
  41.7416644  32.8814325  63.3615184  41.4853609  32.3096198  64.2533917
  41.0265205  32.6585472  62.5696905  43.1256644  32.4624325  62.8975184
  43.4006644  32.3984325  61.7175184  44.0396644  32.2854325  63.8485184
  44.9774516  32.0065686  63.5977398  43.7913341  32.4307815  64.8166643
  41.8916644  35.1884325  62.2525184  43.0126644  35.6814325  62.0155184
  40.8766644  35.3284325  61.4225184  39.9744539  34.9181919  61.6169877
  41.0656644  36.0164325  60.1425184  41.8354423  35.5194811  59.5521114
  39.7296644  35.9844325  59.3455184  38.9614424  36.2267976  60.0798163
  39.7639197  36.7647508  58.5852356  39.3936644  34.6214325  58.6745184
  39.5260941  33.7970443  59.3751948  37.9586644  34.6984325  58.2615184
  37.8255291  35.5223571  57.5604321  37.6672628  33.7637218  57.7824548
  37.3356218  34.8654310  59.1401707  40.3916644  34.4344325  57.4815184
  41.4141584  34.4340517  57.8591495  40.1888140  33.4868012  56.9825715
  40.2673936  35.2521496  56.7715928  41.5746644  37.4504325  60.3395184
  42.2436644  37.9844325  59.4675184  41.1266644  38.1034325  61.4275184
  40.5505569  37.6200317  62.1017017  41.3976644  39.5224325  61.6395184
  41.2968112  40.0342650  60.6824629  40.4226644  40.1374325  62.6225184
  40.5182187  39.6413915  63.5883925  40.6419424  41.1990376  62.7365881
  39.4053362  40.0149806  62.2508357  42.8196644  39.7294325  62.1235184
  43.3506644  40.8454325  62.0265184  43.4036644  38.6884325  62.6835184
  42.8157832  37.9058928  62.9327706  44.8206644  38.6544325  63.0875184
  45.0920794  39.6166782  63.5217030  45.0946644  37.5404325  64.1375184
  44.8446810  36.5887677  63.6685388  46.1611443  37.5655509  64.3613258
  44.3176644  37.6904325  65.4025184  44.7049101  38.5608573  65.9321429
  43.2746389  37.8619935  65.1364984  44.4186644  36.4454325  66.3145184
  43.8560244  35.6436175  65.8363678  45.4708318  36.1664721  66.3713010
  43.8896644  36.6714325  67.6905184  44.5761844  37.3269360  68.2263410
  42.9137136  37.1510983  67.6160881  43.7516644  35.3524325  68.4465184
  44.6559674  34.9080093  68.5159729  43.3924986  35.5316087  69.3733387
  43.1152289  34.7450457  67.9504032  45.7496644  38.5474325  61.8855184
  46.4846644  37.5824325  61.7625184  45.7386644  39.5394325  60.9705184
  45.2364148  40.4014894  61.1276889  46.4476644  39.3774325  59.7215184
  47.3485258  38.7795596  59.8597062  45.5206644  38.6484325  58.7345184
  46.0763280  38.4427859  57.8196159  45.2012007  37.7082497  59.1840730
  44.3406644  39.4654325  58.4175184  43.7786182  38.9901909  57.8011992
  46.8516644  40.7824325  59.1595184  46.2006644  41.7924325  59.4875184
  47.9266644  40.8024325  58.3665184  48.4756175  39.9585651  58.2850461
  48.3366644  41.9694325  57.5985184  48.6020577  42.7856981  58.2703636
  49.5936644  41.6154325  56.7145184  50.4822662  41.5279047  57.3396783
  49.4297870  40.6776986  56.1835764  49.7916644  42.7464325  55.7025184
  48.8633707  42.8181071  55.1357429  49.9333385  43.6577623  56.2834731
  50.9266644  42.5754325  54.7695184  51.7946566  42.1840092  55.3000619
  50.6538368  41.8914707  53.9658637  51.2796644  43.8714325  54.1835184
  52.0808765  44.3294196  54.5938919  50.6686644  44.4594325  53.1525184
  49.5886644  43.9364325  52.5575184  49.2069943  43.0620381  52.8889734
  49.1608607  44.4188296  51.7801018  51.1426644  45.6364325  52.7405184
  51.9373325  46.0489366  53.2078973  50.7046806  46.1096211  51.9631116
  47.1856644  42.3464325  56.7075184  46.8156644  43.4904325  56.6495184
  46.5056644  41.3434325  56.1485184  46.8523761  40.4008520  56.2554413
  45.3196644  41.5484325  55.3615184  45.5768353  41.9873041  54.3974883
  44.6266644  40.1994325  55.1175184  45.2368998  39.5172840  54.5255847
  44.4168168  39.7494322  56.0878605  43.2776644  40.3264325  54.3905184
  43.0156644  40.9804325  53.1895184  43.8544169  41.4841228  52.7090082
  41.6746644  40.8394325  52.8515184  41.2231636  41.2428508  52.0431248
  41.0546644  40.0764325  53.8165184  39.7216644  39.6884325  53.9025184
  39.0417433  39.9832316  53.1032066  39.3386644  38.9404325  55.0165184
  38.3020763  38.6242486  55.1331924  40.3136644  38.5684325  56.0425184
  40.0337424  37.9564711  56.8999836  41.6426644  38.9944325  55.9455184
  42.3121342  38.7970344  56.7827429  42.0346644  39.7324325  54.8015184
  44.3366644  42.5174325  56.0275184  43.9096644  43.5504325  55.4515184
  43.8946644  42.1274325  57.2125184  44.2445778  41.2766360  57.6294181
  42.9086644  42.9214325  57.9675184  41.9777386  43.0179963  57.4088130
  42.6166644  42.1994325  59.2815184  42.2095249  41.2313264  58.9897868
  43.4978960  42.0493742  59.9052279  41.5756644  42.9694325  60.0585184
  40.2346644  42.7804325  59.7845184  39.9612189  42.0303715  59.0424028
  39.2326644  43.5254325  60.4345184  38.1778301  43.3642540  60.2121493
  39.6176644  44.5344325  61.3555184  38.6356644  45.3084325  62.0175184
  37.7395691  45.0684780  61.7704664  40.9726644  44.7334325  61.6485184
  41.2778041  45.4784386  62.3833354  41.9496644  43.9564325  60.9805184
  43.0082098  44.1222652  61.1807213  43.4576644  44.3304325  58.2995184
  42.7796644  45.3354325  58.1795184  44.7036644  44.3924325  58.7335184
  45.2702029  43.5613149  58.8250452  45.2626644  45.6604325  59.1765184
  44.5247123  46.1492786  59.8125650  46.5276644  45.5324325  59.9325184
  47.2292919  44.9136717  59.3730962  46.9512582  46.5272516  60.0703707
  46.3146644  44.9214325  61.2615184  46.6266644  43.7254325  61.4905184
  45.7916644  45.7274325  62.1795184  45.6173774  45.3801113  63.1117694
  45.5708538  46.6836446  61.9407677  45.4766644  46.6034325  58.0215184
  45.2966644  47.7794325  58.2275184  45.7576644  46.0944325  56.8415184
  45.8835400  45.0977908  56.7368278  45.9996644  46.9554325  55.6715184
  46.4938729  47.8718960  55.9939337  46.8876644  46.2584325  54.6385184
  46.3929793  45.3177016  54.3968339  46.8937721  46.9016723  53.7585723
  48.3746644  45.9704325  55.0905184  48.3898355  45.1105268  55.7601698
  48.9310936  45.7338712  54.1835855  49.0706644  47.1694325  55.8035184
  49.6016644  47.0244325  56.9295184  49.0936644  48.3504325  55.1045184
  49.5298211  49.1657755  55.5108243  48.6743319  48.3988794  54.1869594
  44.7126644  47.4274325  55.0395184  44.6146644  48.5934325  54.5415184
  43.7316644  46.5304325  54.9675184  43.8865739  45.5794252  55.2703180
  42.4286644  46.8734325  54.3985184  42.3425850  47.9519697  54.2664317
  42.1766644  46.1564325  52.9715184  41.1409951  46.3105424  52.6686331
  43.1146644  46.7574325  51.9125184  44.1505910  46.6032889  52.2145043
  42.9400511  46.2701962  50.9532426  42.9194812  47.8256194  51.8177516
  42.3896644  44.7204325  53.0785184  42.2364442  44.3097060  52.2244530
  41.3346644  46.4844325  55.3925184  40.5856644  45.4954325  55.1415184
  41.2596644  47.1864325  56.5335184  42.0466644  48.3814325  57.0005184
  42.0625345  49.1300764  56.2084448  43.0667089  48.0708712  57.2267039
  41.3066644  48.8484325  58.2205184  40.5640035  49.5905548  57.9275879
  42.0129278  49.2978616  58.9185921  40.6706644  47.6524325  58.8105184
  39.7582728  47.9282535  59.3392560  41.3401250  47.1272389  59.4917628
  40.3186644  46.7254325  57.5785184  40.5460327  45.6789800  57.7818390
  38.8676644  46.8574325  57.1895184  38.0636644  46.0184325  57.5935184
  38.4946644  47.8874325  56.4335184  39.1311952  48.5964321  56.0984852
  37.0606644  48.0684325  56.1875184  36.5086682  47.9626410  57.1214390
  36.7886644  49.4654325  55.6125184  37.4760932  49.6647982  54.7904514
  35.7649259  49.4686230  55.2382866  36.9506644  50.5954325  56.7265184
  37.0426644  50.2984325  57.9145184  37.0076644  51.7334325  56.3795184
  36.5366644  46.9144325  55.2915184  35.5006644  46.2914325  55.5705184
  37.3376644  46.6234325  54.2765184  38.1633837  47.1751723  54.0924801
  37.0206644  45.5284325  53.3665184  35.9964857  45.6385175  53.0100938
  37.9576644  45.5204325  52.1625184  38.0387601  46.5256261  51.7488658
  38.9453680  45.1711502  52.4634229  37.3676644  44.5494325  51.0705184
  36.8233630  43.7332875  51.5456440  36.6976550  45.0930712  50.4044506
  38.4596644  44.0184325  50.3175184  38.9525216  44.8627806  49.8355775
  39.1430347  43.5586873  51.0314784  38.1216644  43.0474325  49.3125184
  37.4682462  42.3013326  49.5035134  38.6966644  43.0954325  48.1165184
  39.5336644  44.1004325  47.8595184  39.7134853  44.7975366  48.5679041
  39.9842339  44.1602519  46.9575714  38.4156644  42.1844325  47.1885184
  37.7574904  41.4461222  47.3929814  38.8618091  42.2353416  46.2838296
  37.0936644  44.1784325  54.0695184  36.2266644  43.3444325  53.9055184
  38.1736644  43.9454325  54.7935184  38.8907385  44.6552684  54.8386508
  38.4046644  42.6894325  55.4825184  38.3680448  41.8574773  54.7792341
  39.7896644  42.6864325  56.1825184  39.8382441  43.5085597  56.8965540
  39.9301166  41.7414026  56.7072011  40.5748237  42.8072258  55.4361719
  37.2426644  42.4694325  56.5075184  36.8186644  41.3434325  56.7095184
  36.7996644  43.5354325  57.1935184  37.2530426  44.4336386  57.1053525
  35.6886644  43.4064325  58.1465184  35.9115841  42.6377493  58.8864726
  35.4856644  44.7234325  58.8635184  36.4162874  44.9325935  59.3910520
  35.3311541  45.4743572  58.0887032  34.3366644  44.7634325  59.8375184
  33.4232914  44.4189490  59.3525630  34.5527565  44.1286881  60.6968820
  34.1506644  46.2164325  60.3075184  34.1084252  46.8448980  59.4179422
  33.1983724  46.2699866  60.8351274  35.2526644  46.7004325  61.2115184
  35.4517850  45.9564099  61.9828044  36.1588078  46.8722489  60.6305860
  34.8136644  48.0064325  61.8665184  33.9742661  47.8473471  62.4052224
  35.5465887  48.3404063  62.4759307  34.6295163  48.6961255  61.1520171
  34.4016644  42.9534325  57.4445184  33.6916644  42.0714325  57.9615184
  34.1166644  43.5044325  56.2545184  34.6906730  44.2476654  55.8827413
  32.9496644  43.0264325  55.4345184  32.0306359  43.1594094  56.0053099
  32.8266644  43.8094325  54.1145184  33.8061058  43.8132824  53.6362100
  32.1146651  43.2827335  53.4791089  32.3556644  45.2494325  54.3225184
  31.5613873  45.2572949  55.0689519  33.1942525  45.8477416  54.6787462
  31.8376644  45.8294325  53.0325184  31.1681918  45.1205734  52.5452564
  31.3023514  46.7586139  53.2278675  32.9656644  46.1154325  52.1245184
  33.1339336  45.4362856  51.3961336  33.7746644  47.1884325  52.2015184
  33.5816644  48.0964325  53.1465184  32.8267409  47.9804543  53.8073812
  34.1903225  48.9005326  53.2018162  34.7716644  47.3384325  51.3095184
  34.9075759  46.6454978  50.5873898  35.3792538  48.1432260  51.3664500
  33.1156644  41.5504325  55.0745184  32.1926644  40.8114325  55.1735184
  34.3116644  41.1144325  54.6685184  35.1316704  41.6973784  54.7571950
  34.4816644  39.7324325  54.1405184  33.7267152  39.4123279  53.4224070
  35.8616644  39.6344325  53.4775184  36.5992497  40.0963947  54.1337638
  36.2536644  38.1454325  53.2215184  35.5167403  37.6828990  52.5649313
  37.2359354  38.1035286  52.7508930  36.2824502  37.6085781  54.1697064
  35.8546644  40.5154325  52.1735184  35.6415703  41.5517500  52.4356996
  36.8295454  40.4567317  51.6895133  35.0880185  40.1488856  51.4908777
  34.4536644  38.7624325  55.3475184  33.8226644  37.6664325  55.2925184
  35.1046644  39.1984325  56.4405184  35.6994361  40.0142287  56.4118391
  35.0246644  38.4344325  57.7015184  35.3918080  37.4386972  57.4528899
  35.8836644  39.0304325  58.8355184  35.6588692  40.0901831  58.9559177
  35.5446644  38.2654325  60.1745184  35.7696513  37.2056185  60.0550361
  36.1434742  38.6739294  60.9885564  34.4865113  38.3878903  60.4056359
  37.3546644  38.7764325  58.5065184  37.5321402  37.7260743  58.7374964
  37.4484244  38.9324526  57.4318248  38.4566644  39.7014325  59.2905184
  38.3638181  39.5455882  60.3653170  39.4602123  39.4229683  58.9688843
  38.2801006  40.7519673  59.0596469  33.5996644  38.2854325  58.2095184
  33.2236644  37.1944325  58.6375184  32.8046644  39.3714325  58.1675184
  33.1580657  40.2843574  57.9189731  31.4236644  39.2624325  58.5985184
  31.4068360  38.8534752  59.6087510  30.7026644  40.6444325  58.6085184
  30.9545202  41.1695235  57.6871345  29.2006644  40.4924325  58.7075184
  28.9479953  39.9678034  59.6289424  28.7347199  41.4778147  58.7115996
  28.8356019  39.9220106  57.8534406  31.1496644  41.3934325  59.7415184
  30.7098354  42.2466462  59.7548253  30.6576644  38.2334325  57.7365184
  29.8096644  37.4934325  58.2755184  30.9856644  38.1794325  56.4405184
  31.5933662  38.9049265  56.0877348  30.3886644  37.2444325  55.4805184
  29.3071199  37.2991884  55.6044643  30.7356644  37.5784325  54.0085184
  31.7832551  37.3281809  53.8411024  29.8486644  36.7904325  53.0055184
  28.8008939  37.0405347  53.1720279  30.1276446  37.0566959  51.9860220
  29.9942587  35.7204269  53.1538121  30.4876644  38.9804325  53.8155184
  30.6939967  39.2200744  52.9090974  30.7336644  35.7994325  55.8895184
  29.8296644  34.9494325  55.9445184  32.0236644  35.5244325  56.1065184
  32.7302141  36.1927417  55.8340306  32.4596644  34.2584325  56.7205184
  32.2033246  33.4271618  56.0637245  33.9756644  34.2524325  56.9495184
  34.3501881  35.2067126  57.3198973  34.1782690  33.4732925  57.6843601
  34.7786644  33.9194325  55.7445184  35.7776644  34.7874325  55.3105184
  35.9563928  35.7145433  55.8551481  36.5836644  34.4634325  54.1345184
  37.3168331  35.1765184  53.7575931  36.4106644  33.2304325  53.4915184
  37.0294325  32.9358794  52.6438956  35.3706644  32.3314325  53.9835184
  35.2052639  31.3747570  53.4880237  34.6066644  32.6844325  55.0595184
  33.8315230  32.0095086  55.4224697  31.8226644  33.9314325  58.0745184
  31.5816644  32.7284325  58.3835184  31.6436644  34.9344325  58.9365184
  31.8984084  35.8750436  58.6710839  31.1476644  34.7094325  60.2825184
  31.6993448  33.8961262  60.7539851  31.3306644  35.9824325  61.1275184
  32.2539161  36.4537365  60.7905051  30.4869168  36.6343107  60.9011450
  31.4016644  35.7434325  62.6515184  30.4535919  35.3044355  62.9622292
  32.2082524  35.0344258  62.8381397  31.6566644  37.0324325  63.4525184
  31.5863804  36.7936674  64.5137207  32.6639724  37.3812784  63.2250616
  30.7086644  38.1064325  63.1495184  29.7761528  38.0029892  63.5234449
  30.9826644  39.1844325  62.4085184  32.1996644  39.3514325  61.9045184
  32.9158379  38.6619951  62.0830448  32.4036244  40.1671334  61.3449364
  30.0346644  40.1104325  62.1905184  29.1141511  39.9896714  62.5882269
  30.2465599  40.9233641  61.6298570  29.6756644  34.2764325  60.2535184
  29.2536644  33.4034325  60.9885184  28.9066644  34.9214325  59.3935184
  29.3312560  35.5010884  58.6837155  27.4316644  34.8384325  59.4405184
  27.1099920  34.3275840  60.3480755  26.8086644  36.2334325  59.4185184
  25.7277327  36.1155357  59.4945924  27.3246644  37.1614325  60.6015184
  28.4055302  37.2801782  60.5258332  26.8465967  38.1385611  60.5324533
  27.0761889  36.7027850  61.5585989  27.1336644  36.8524325  58.1605184
  26.7499295  37.7318018  58.1279993  26.7906644  34.0764325  58.3145184
  25.6416644  33.6974325  58.4565184  27.5156644  33.9224325  57.1915184
  28.4754444  34.2319953  57.2471283  27.0566644  33.3764325  55.9695184
  27.8600613  33.4117102  55.2337141  26.7544309  32.3411332  56.1273465
  25.8686644  34.1634325  55.4425184  25.0086644  33.5924325  54.8405184
  25.8146644  35.4754325  55.7715184  26.5913175  35.8518331  56.2961439
  24.7696644  36.3904325  55.3325184  24.0287851  35.9178214  54.6876650
  24.0286644  37.1374325  56.4755184  23.2999673  37.8088344  56.0212936
  23.3136644  36.1814325  57.4325184  24.0418304  35.5099753  57.8875121
  22.8120459  36.7547162  58.2121490  22.5770259  35.5975792  56.8806311
  24.9156644  38.0624325  57.1685184  24.4308743  38.5078299  57.8672315
  25.4296644  37.4994325  54.5505184  26.6506644  37.6124325  54.5325184
  24.6146644  38.3404325  53.9365184  23.6133392  38.2266024  54.0035252
  25.1276644  39.4244325  53.1345184  26.1778459  39.2559213  52.8961450
  24.3476644  39.5054325  51.8455184  23.2753697  39.4303031  52.0261808
  24.5688921  40.4590429  51.3661589  24.7046644  38.3944325  50.8135184
  23.8766644  37.4484325  50.3655184  22.8700009  37.4422859  50.7834786
  24.5046644  36.6664325  49.4435184  24.0899279  35.8784217  48.9669345
  25.7936644  37.1134325  49.2745184  26.8326644  36.6414325  48.4405184
  26.6358271  35.7765182  47.8070540  28.0296644  37.3044325  48.4805184
  28.8549929  36.9631034  47.8556766  28.2236644  38.4344325  49.3225184
  29.1755273  38.9654972  49.3276781  27.2126644  38.8964325  50.1615184
  27.3976206  39.7781269  50.7751199  25.9556644  38.2094325  50.1415184
  25.0056644  40.7474325  53.9345184  24.9456644  41.8424325  53.3655184
  24.9206644  40.6254325  55.2515184  25.0347061  39.7290913  55.7028126
  24.6406644  41.7734325  56.0745184  23.6569203  42.1837872  55.8465806
  24.6586644  41.3334325  57.5335184  25.4974667  40.6525965  57.6783367
  24.7955223  42.2158545  58.1585794  23.3946644  40.6494325  57.9125184
  22.5356644  40.5124325  57.0155184  23.2896644  40.2694325  59.0825184
  25.6736644  42.8884325  55.8535184  25.3026644  44.0554325  55.7975184
  26.9406644  42.5374325  55.6065184  27.2280323  41.5739113  55.5108836
  27.9736644  43.5864325  55.5245184  27.7929232  44.3214124  56.3088884
  29.3886644  42.9544325  55.7475184  29.5879010  42.2228256  54.9644754
  30.1462693  43.7373749  55.7138117  29.4183184  42.4624846  56.7197361
  27.9326644  44.3094325  54.2075184  28.6326644  45.2764325  54.0275184
  27.0986644  43.8504325  53.2595184  26.4979321  43.0633017  53.4586297
  27.0576644  44.4324325  51.9175184  27.7564366  45.2667839  51.8569024
  27.4526644  43.3754325  50.8495184  26.8528362  42.4944063  51.0777691
  27.1909450  43.7456921  49.8583016  28.9006644  43.0124325  50.8785184
  29.3726644  41.9604325  51.6845184  28.6540273  41.3827632  52.2658603
  30.7286644  41.6514325  51.7485184  31.0840276  40.8247838  52.3637183
  31.6366644  42.4074325  51.0015184  32.9786644  42.1054325  51.0755184
  33.1656098  41.3689215  51.6622063  31.1926644  43.4694325  50.1955184
  31.8859542  44.0769018  49.6137704  29.8106644  43.7404325  50.1515184
  29.4336161  44.5497213  49.5262295  25.6566644  44.9974325  51.5785184
  25.4786644  45.6694325  50.5495184  24.6686644  44.7824325  52.4375184
  24.8355087  44.3117245  53.3154115  23.3256644  44.7644325  51.8925184
  23.3874761  44.4771316  50.8428819  22.3766644  43.7844325  52.6175184
  21.3959669  43.9279532  52.1639400  22.7426471  42.7851135  52.3818951
  22.2646644  43.9404325  54.1275184  23.2582066  43.8878194  54.5727223
  21.8133083  44.9048537  54.3604805  21.3876644  42.8134325  54.6975184
  20.7107378  42.4534100  53.9227583  22.0230552  41.9940156  55.0335748
  20.5876644  43.3354325  55.8585184  21.2636155  43.5475331  56.6868927
  20.0843096  44.2539230  55.5566770  19.5716644  42.3304325  56.2905184
  20.0379051  41.4794099  56.5706610  19.0448388  42.6979567  57.0699289
  18.9449524  42.1340740  55.5232019  22.6896644  46.0914325  51.4075184
  21.8856644  46.0314325  50.4885184  23.0486644  47.2784325  51.9085184
  22.6913627  48.0650613  51.3854028  23.8786644  47.5424325  53.0605184
  24.0864961  46.6012670  53.5695497  25.2276644  48.2054325  52.6735184
  25.5449970  48.8308335  53.5079480  25.9642491  47.4190278  52.5088649
  25.1466644  49.0914325  51.3875184  24.0626644  49.4254325  50.9085184
  26.3126644  49.4544325  50.8405184  26.3201378  50.0269666  50.0085036
  27.1799593  49.1542325  51.2621585  23.0936644  48.4674325  54.0015184
  23.1236644  49.7004325  53.8685184  22.2926644  48.1644325  55.0575184
  23.2932473  48.1264814  55.1897790  21.4906644  47.8614325  56.1135184
  20.4462552  47.9474680  55.8136718  21.6910703  46.8415269  56.4417421
  21.6910705  48.5521472  56.9325731  40.2946644  32.3284325  50.9215184
  40.6216644  32.6524325  50.1055184  39.6516644  31.1344325  50.9685184
  39.5536644  30.3524325  49.8155184  39.9186644  30.6864325  48.9095184
  38.9506644  29.1174325  49.9325184  38.8756644  28.5174325  49.0965184
  38.4356644  28.6504325  51.1515184  37.9496644  27.7404325  51.1885184
  38.5756644  29.4054325  52.3095184  38.2526644  29.0504325  53.2235184
  39.1766644  30.6774325  52.1885184  39.3456644  31.4504325  53.4555184
  38.6616644  31.1094325  54.2045184  39.1486644  32.4954325  53.3335184
  40.8076644  31.1604325  53.8695184  41.4586644  31.5714325  53.1265184
  40.9066644  30.0984325  53.9525184  41.1766644  31.7404325  55.1925184
  42.1956644  31.5024325  55.4145184  40.5416644  31.3314325  55.9505184
  41.0566644  32.8034325  55.1615184  34.7598700  61.4580460  38.6051300
  46.8829540  27.9529130  68.6492210  46.2922890  18.1528630  57.8797720
  47.5271960  58.2184770  39.8654580  33.0020060  44.9481740  66.4933090
  38.2029720  17.6034150  36.9341590  70.2133040  73.6729830  76.2691170
  69.3249740  74.0145800  76.1671050  70.4974230  73.4730150  75.3772000
  68.1766050  76.2735480  82.1530870  68.7482160  75.5057680  82.1534510
  68.1767590  76.5724240  81.2437480  69.4190920  71.6819840  83.9399800
  69.2393760  70.7845590  84.2202560  69.0171000  72.2291710  84.6146750
  72.3894430  72.2561330  77.3029550  72.4961180  73.1565060  77.6098310
  71.4786790  72.2079300  77.0124200  70.0377590  74.1780340  82.5482140
  70.7187700  74.4418710  83.1669540  69.7225640  73.3381210  82.8820150
  74.2302160  75.2247700  81.6354730  74.7380380  75.7228670  82.2759750
  74.7615400  74.4482900  81.4594090  72.5138260  69.8646260  85.9018150
  72.5156700  70.3818650  85.0964050  71.6842570  69.3876440  85.8788080
  72.1953590  71.5756220  83.9088600  72.5370400  72.4198270  83.6142470
  71.2569400  71.7239960  84.0253940  75.8781480  69.0638490  80.2333190
  76.1856460  68.5085380  79.5168690  74.9482180  69.1982950  80.0506180
  73.8718880  77.6552060  79.7513040  73.4675880  76.9429310  79.2558940
  73.9582000  77.3105300  80.6401080  72.5847500  74.4295270  83.5312080
  73.1362090  74.5390610  82.7565330  73.0991010  74.8032870  84.2467310
  70.5723510  76.5497040  77.2519690  70.4521110  77.2759130  76.6400960
  70.2624400  75.7799950  76.7747600  73.0387170  69.8932110  80.6343360
  72.5955320  70.6741650  80.3027880  73.5972160  70.2162000  81.3414300
  76.1545990  69.5142810  75.5149190  75.5300170  69.5102680  76.2402500
  76.0676110  68.6473770  75.1185160  75.0763070  70.4379440  82.4932960
  75.3735400  71.3442270  82.4124980  75.6248630  69.9498220  81.8792530
  72.8301390  75.0165680  78.3624610  72.6042310  74.8002850  79.2671230
  72.0493920  75.4494140  78.0170580  67.7028190  70.2493390  81.2148740
  67.4141240  70.8196250  81.9273720  68.4473950  69.7697840  81.5779970
  67.8898420  74.1913510  72.4251460  67.8073090  75.1344270  72.5666450
  67.5381480  74.0488420  71.5463810  75.6896550  72.9252540  81.4921810
  75.6932610  72.4842490  80.6426350  76.5847670  73.2469870  81.5993630
  71.5398930  72.8079030  80.4516020  71.1998980  73.2854260  81.2083070
  70.7776250  72.3544150  80.0917120  75.7516700  73.9264620  74.4828570
  75.8729520  73.8851100  75.4314390  75.3665210  74.7888770  74.3275300
  74.7638200  76.2365760  73.8811870  74.1955100  75.7884010  73.2547780
  75.4727200  76.5958540  73.3477020  75.9904520  76.9854320  83.2387220
  76.3574650  76.5112890  83.9848560  75.8009580  77.8595890  83.5795560
  68.8545010  71.7298010  79.3680690  68.5691930  71.3653680  80.2059310
  68.7923870  70.9978470  78.7543830  73.7803890  76.0262960  85.5571430
  73.4760960  76.9054940  85.7821790  74.7350350  76.0862750  85.5928870
  68.3475670  76.8656960  73.3277390  69.2170520  77.1481760  73.6113310
  67.8565990  77.6792830  73.2126200  71.4122260  68.5967820  77.9208190
  71.2836890  68.5885720  78.8693110  70.5884280  68.9350910  77.5699200
  75.2401030  74.0824140  77.3561780  74.5317180  74.5510480  77.7975390
  75.5245510  73.4246150  77.9906970  73.4436050  72.3909220  74.7312490
  74.2926580  72.8279370  74.6652680  73.0767320  72.7029480  75.5584550
  71.0374230  76.0766650  73.8880910  71.1177820  75.1294160  73.9998310
  71.9293980  76.4073530  73.9941570  75.7907660  70.1438870  85.0986320
  75.3424960  70.1663130  84.2531870  75.1572860  69.7457890  85.6956620
  73.2705400  74.7139940  72.1248820  73.0694460  73.8507300  72.4862160
  73.0997450  74.6273300  71.1870420  72.0688200  71.8140560  72.1126700
  72.3714100  71.8207990  71.2045850  72.8082790  71.4638420  72.6094360
  75.2873130  70.7575180  73.0982900  74.9395130  70.0799170  72.5185350
  75.4885900  70.2964690  73.9126290  68.6278770  77.2862830  79.4947270
  67.9727610  77.0174470  78.8506970  69.4656720  77.1767310  79.0449250
  69.6654700  77.6715400  84.0350610  70.0327740  77.5842800  84.9146630
  69.0965520  76.9081950  83.9357470  67.8416850  74.4961760  75.4372600
  66.9380930  74.7591960  75.2624260  68.3257470  74.7672930  74.6572560
  70.3844060  73.5527300  73.3466980  71.0935760  73.1310520  72.8614260
  69.6684000  73.6202530  72.7150330  70.0318220  69.6066630  72.3869630
  70.7546350  70.1475570  72.7050850  70.3042740  69.3330050  71.5111170
  69.7210410  68.8572820  82.2892250  70.3686600  68.3070200  81.8487410
  70.1412250  69.1115970  83.1108060  69.4742410  69.0128490  85.0317570
  69.1257230  69.4692310  85.7975750  69.1430110  68.1185620  85.1140000
  69.4565060  69.6459890  75.9805200  70.2144420  69.7588770  75.4069230
  68.9942230  70.4829090  75.9348630  75.9978870  71.7599160  78.9707510
  75.1853380  71.3856050  78.6303390  76.5020510  71.0044240  79.2728700
  71.8290210  70.1723940  74.5207170  72.3582970  69.3853740  74.3915120
  72.4618530  70.8515130  74.7542700  74.0228050  69.9099080  77.5752560
  73.3930790  69.2086390  77.7422690  73.4833190  70.6703210  77.3585720
  70.2133040  73.6729830  57.4947680  69.3249740  74.0145800  57.3927560
  70.4974230  73.4730150  56.6028510  68.1766050  76.2735480  63.3787380
  68.7482160  75.5057680  63.3791020  68.1767590  76.5724240  62.4693990
  69.4190920  71.6819840  65.1656310  69.2393760  70.7845590  65.4459070
  69.0171000  72.2291710  65.8403260  72.3894430  72.2561330  58.5286060
  72.4961180  73.1565060  58.8354820  71.4786790  72.2079300  58.2380710
  70.0377590  74.1780340  63.7738650  70.7187700  74.4418710  64.3926050
  69.7225640  73.3381210  64.1076660  74.2302160  75.2247700  62.8611240
  74.7380380  75.7228670  63.5016260  74.7615400  74.4482900  62.6850600
  72.5138260  69.8646260  67.1274660  72.5156700  70.3818650  66.3220560
  71.6842570  69.3876440  67.1044590  72.1953590  71.5756220  65.1345110
  72.5370400  72.4198270  64.8398980  71.2569400  71.7239960  65.2510450
  75.8781480  69.0638490  61.4589700  76.1856460  68.5085380  60.7425200
  74.9482180  69.1982950  61.2762690  73.8718880  77.6552060  60.9769550
  73.4675880  76.9429310  60.4815450  73.9582000  77.3105300  61.8657590
  72.5847500  74.4295270  64.7568590  73.1362090  74.5390610  63.9821840
  73.0991010  74.8032870  65.4723820  70.5723510  76.5497040  58.4776200
  70.4521110  77.2759130  57.8657470  70.2624400  75.7799950  58.0004110
  73.0387170  69.8932110  61.8599870  72.5955320  70.6741650  61.5284390
  73.5972160  70.2162000  62.5670810  76.1545990  69.5142810  56.7405700
  75.5300170  69.5102680  57.4659010  76.0676110  68.6473770  56.3441670
  75.0763070  70.4379440  63.7189470  75.3735400  71.3442270  63.6381490
  75.6248630  69.9498220  63.1049040  72.8301390  75.0165680  59.5881120
  72.6042310  74.8002850  60.4927740  72.0493920  75.4494140  59.2427090
  75.2700600  75.9151260  70.2541390  75.1744200  74.9745990  70.1041790
  76.1132580  76.1366330  69.8589460  70.4011140  72.3264930  68.4075170
  70.0074530  73.1740140  68.6147950  69.7129540  71.6891300  68.5983810
  67.7028190  70.2493390  62.4405250  67.4141240  70.8196250  63.1530230
  68.4473950  69.7697840  62.8036480  67.8898420  74.1913510  53.6507970
  67.8073090  75.1344270  53.7922960  67.5381480  74.0488420  52.7720320
  75.6896550  72.9252540  62.7178320  75.6932610  72.4842490  61.8682860
  76.5847670  73.2469870  62.8250140  71.5398930  72.8079030  61.6772530
  71.1998980  73.2854260  62.4339580  70.7776250  72.3544150  61.3173630
  75.7516700  73.9264620  55.7085080  75.8729520  73.8851100  56.6570900
  75.3665210  74.7888770  55.5531810  74.7638200  76.2365760  55.1068380
  74.1955100  75.7884010  54.4804290  75.4727200  76.5958540  54.5733530
  75.9904520  76.9854320  64.4643730  76.3574650  76.5112890  65.2105070
  75.8009580  77.8595890  64.8052070  68.8545010  71.7298010  60.5937200
  68.5691930  71.3653680  61.4315820  68.7923870  70.9978470  59.9800340
  73.7803890  76.0262960  66.7827940  73.4760960  76.9054940  67.0078300
  74.7350350  76.0862750  66.8185380  69.8367620  76.8665700  67.9299300
  69.4782560  77.5319550  68.5172640  69.5422180  76.0349250  68.3011920
  73.0380740  77.3249940  70.8138850  72.7380880  77.4707120  69.9166670
  73.8091980  76.7655230  70.7212240  68.3475670  76.8656960  54.5533900
  69.2170520  77.1481760  54.8369820  67.8565990  77.6792830  54.4382710
  71.4122260  68.5967820  59.1464700  71.2836890  68.5885720  60.0949620
  70.5884280  68.9350910  58.7955710  68.4116190  70.3558940  68.6071400
  67.6974710  70.5555860  69.2124010  68.8311230  69.5798510  68.9786200
  75.2401030  74.0824140  58.5818290  74.5317180  74.5510480  59.0231900
  75.5245510  73.4246150  59.2163480  73.4436050  72.3909220  55.9569000
  74.2926580  72.8279370  55.8909190  73.0767320  72.7029480  56.7841060
  71.0374230  76.0766650  55.1137420  71.1177820  75.1294160  55.2254820
  71.9293980  76.4073530  55.2198080  68.5645030  77.8981570  70.3493590
  69.0684050  77.3188850  70.9209820  67.8252450  78.1821800  70.8869960
  70.5968110  76.0411160  71.2443660  70.6373450  75.7425030  72.1528890
  71.4513610  76.4418770  71.0851180  72.5373920  74.6203260  69.2118150
  72.0070380  74.1294210  68.5841490  73.2061990  75.0487460  68.6776080
  73.0246220  71.5865630  69.2915440  72.9303090  70.9686380  68.5666310
  72.4443610  72.3131920  69.0645350  75.7907660  70.1438870  66.3242830
  75.3424960  70.1663130  65.4788380  75.1572860  69.7457890  66.9213130
  73.2705400  74.7139940  53.3505330  73.0694460  73.8507300  53.7118670
  73.0997450  74.6273300  52.4126930  75.2999880  73.3130730  69.5868930
  75.8899570  73.0046580  70.2746750  74.4820120  72.8410480  69.7428830
  72.0688200  71.8140560  53.3383210  72.3714100  71.8207990  52.4302360
  72.8082790  71.4638420  53.8350870  75.2873130  70.7575180  54.3239410
  74.9395130  70.0799170  53.7441860  75.4885900  70.2964690  55.1382800
  68.6278770  77.2862830  60.7203780  67.9727610  77.0174470  60.0763480
  69.4656720  77.1767310  60.2705760  69.6654700  77.6715400  65.2607120
  70.0327740  77.5842800  66.1403140  69.0965520  76.9081950  65.1613980
  69.2170700  74.5824490  69.1665540  68.3226750  74.5491250  69.5059250
  69.7568250  74.7811280  69.9316790  67.8416850  74.4961760  56.6629110
  66.9380930  74.7591960  56.4880770  68.3257470  74.7672930  55.8829070
  70.3844060  73.5527300  54.5723490  71.0935760  73.1310520  54.0870770
  69.6684000  73.6202530  53.9406840  70.0318220  69.6066630  53.6126140
  70.7546350  70.1475570  53.9307360  70.3042740  69.3330050  52.7367680
  69.7210410  68.8572820  63.5148760  70.3686600  68.3070200  63.0743920
  70.1412250  69.1115970  64.3364570  69.4742410  69.0128490  66.2574080
  69.1257230  69.4692310  67.0232260  69.1430110  68.1185620  66.3396510
  70.1463050  68.5404690  69.5324850  70.6946040  68.3592740  68.7690960
  70.2118360  67.7498800  70.0681160  69.4565060  69.6459890  57.2061710
  70.2144420  69.7588770  56.6325740  68.9942230  70.4829090  57.1605140
  75.9978870  71.7599160  60.1964020  75.1853380  71.3856050  59.8559900
  76.5020510  71.0044240  60.4985210  71.8290210  70.1723940  55.7463680
  72.3582970  69.3853740  55.6171630  72.4618530  70.8515130  55.9799210
  74.0228050  69.9099080  58.8009070  73.3930790  69.2086390  58.9679200
  73.4833190  70.6703210  58.5842230  74.1483610  69.1883060  71.2361560
  73.8667880  69.6916660  70.4722380  74.5303310  68.3904810  70.8703690
  70.2133040  73.6729830  38.7204190  69.3249740  74.0145800  38.6184070
  70.4974230  73.4730150  37.8285020  68.1766050  76.2735480  44.6043890
  68.7482160  75.5057680  44.6047530  68.1767590  76.5724240  43.6950500
  69.4190920  71.6819840  46.3912820  69.2393760  70.7845590  46.6715580
  69.0171000  72.2291710  47.0659770  72.3894430  72.2561330  39.7542570
  72.4961180  73.1565060  40.0611330  71.4786790  72.2079300  39.4637220
  70.0377590  74.1780340  44.9995160  70.7187700  74.4418710  45.6182560
  69.7225640  73.3381210  45.3333170  74.2302160  75.2247700  44.0867750
  74.7380380  75.7228670  44.7272770  74.7615400  74.4482900  43.9107110
  72.5138260  69.8646260  48.3531170  72.5156700  70.3818650  47.5477070
  71.6842570  69.3876440  48.3301100  72.1953590  71.5756220  46.3601620
  72.5370400  72.4198270  46.0655490  71.2569400  71.7239960  46.4766960
  75.8781480  69.0638490  42.6846210  76.1856460  68.5085380  41.9681710
  74.9482180  69.1982950  42.5019200  73.8718880  77.6552060  42.2026060
  73.4675880  76.9429310  41.7071960  73.9582000  77.3105300  43.0914100
  72.5847500  74.4295270  45.9825100  73.1362090  74.5390610  45.2078350
  73.0991010  74.8032870  46.6980330  70.5723510  76.5497040  39.7032710
  70.4521110  77.2759130  39.0913980  70.2624400  75.7799950  39.2260620
  73.0387170  69.8932110  43.0856380  72.5955320  70.6741650  42.7540900
  73.5972160  70.2162000  43.7927320  76.1545990  69.5142810  37.9662210
  75.5300170  69.5102680  38.6915520  76.0676110  68.6473770  37.5698180
  75.0763070  70.4379440  44.9445980  75.3735400  71.3442270  44.8638000
  75.6248630  69.9498220  44.3305550  72.8301390  75.0165680  40.8137630
  72.6042310  74.8002850  41.7184250  72.0493920  75.4494140  40.4683600
  75.2700600  75.9151260  51.4797900  75.1744200  74.9745990  51.3298300
  76.1132580  76.1366330  51.0845970  70.4011140  72.3264930  49.6331680
  70.0074530  73.1740140  49.8404460  69.7129540  71.6891300  49.8240320
  67.7028190  70.2493390  43.6661760  67.4141240  70.8196250  44.3786740
  68.4473950  69.7697840  44.0292990  67.8898420  74.1913510  34.8764480
  67.8073090  75.1344270  35.0179470  67.5381480  74.0488420  33.9976830
  75.6896550  72.9252540  43.9434830  75.6932610  72.4842490  43.0939370
  76.5847670  73.2469870  44.0506650  71.5398930  72.8079030  42.9029040
  71.1998980  73.2854260  43.6596090  70.7776250  72.3544150  42.5430140
  75.7516700  73.9264620  36.9341590  75.8729520  73.8851100  37.8827410
  75.3665210  74.7888770  36.7788320  74.7638200  76.2365760  36.3324890
  74.1955100  75.7884010  35.7060800  75.4727200  76.5958540  35.7990040
  75.9904520  76.9854320  45.6900240  76.3574650  76.5112890  46.4361580
  75.8009580  77.8595890  46.0308580  68.8545010  71.7298010  41.8193710
  68.5691930  71.3653680  42.6572330  68.7923870  70.9978470  41.2056850
  73.7803890  76.0262960  48.0084450  73.4760960  76.9054940  48.2334810
  74.7350350  76.0862750  48.0441890  69.8367620  76.8665700  49.1555810
  69.4782560  77.5319550  49.7429150  69.5422180  76.0349250  49.5268430
  73.0380740  77.3249940  52.0395360  72.7380880  77.4707120  51.1423180
  73.8091980  76.7655230  51.9468750  68.3475670  76.8656960  35.7790410
  69.2170520  77.1481760  36.0626330  67.8565990  77.6792830  35.6639220
  71.4122260  68.5967820  40.3721210  71.2836890  68.5885720  41.3206130
  70.5884280  68.9350910  40.0212220  68.4116190  70.3558940  49.8327910
  67.6974710  70.5555860  50.4380520  68.8311230  69.5798510  50.2042710
  75.2401030  74.0824140  39.8074800  74.5317180  74.5510480  40.2488410
  75.5245510  73.4246150  40.4419990  73.4436050  72.3909220  37.1825510
  74.2926580  72.8279370  37.1165700  73.0767320  72.7029480  38.0097570
  71.0374230  76.0766650  36.3393930  71.1177820  75.1294160  36.4511330
  71.9293980  76.4073530  36.4454590  68.5645030  77.8981570  51.5750100
  69.0684050  77.3188850  52.1466330  67.8252450  78.1821800  52.1126470
  70.5968110  76.0411160  52.4700170  70.6373450  75.7425030  53.3785400
  71.4513610  76.4418770  52.3107690  72.5373920  74.6203260  50.4374660
  72.0070380  74.1294210  49.8098000  73.2061990  75.0487460  49.9032590
  73.0246220  71.5865630  50.5171950  72.9303090  70.9686380  49.7922820
  72.4443610  72.3131920  50.2901860  75.7907660  70.1438870  47.5499340
  75.3424960  70.1663130  46.7044890  75.1572860  69.7457890  48.1469640
  73.2705400  74.7139940  34.5761840  73.0694460  73.8507300  34.9375180
  73.0997450  74.6273300  33.6383440  75.2999880  73.3130730  50.8125440
  75.8899570  73.0046580  51.5003260  74.4820120  72.8410480  50.9685340
  72.0688200  71.8140560  34.5639720  72.3714100  71.8207990  33.6558870
  72.8082790  71.4638420  35.0607380  75.2873130  70.7575180  35.5495920
  74.9395130  70.0799170  34.9698370  75.4885900  70.2964690  36.3639310
  68.6278770  77.2862830  41.9460290  67.9727610  77.0174470  41.3019990
  69.4656720  77.1767310  41.4962270  69.6654700  77.6715400  46.4863630
  70.0327740  77.5842800  47.3659650  69.0965520  76.9081950  46.3870490
  69.2170700  74.5824490  50.3922050  68.3226750  74.5491250  50.7315760
  69.7568250  74.7811280  51.1573300  67.8416850  74.4961760  37.8885620
  66.9380930  74.7591960  37.7137280  68.3257470  74.7672930  37.1085580
  70.3844060  73.5527300  35.7980000  71.0935760  73.1310520  35.3127280
  69.6684000  73.6202530  35.1663350  70.0318220  69.6066630  34.8382650
  70.7546350  70.1475570  35.1563870  70.3042740  69.3330050  33.9624190
  69.7210410  68.8572820  44.7405270  70.3686600  68.3070200  44.3000430
  70.1412250  69.1115970  45.5621080  69.4742410  69.0128490  47.4830590
  69.1257230  69.4692310  48.2488770  69.1430110  68.1185620  47.5653020
  70.1463050  68.5404690  50.7581360  70.6946040  68.3592740  49.9947470
  70.2118360  67.7498800  51.2937670  69.4565060  69.6459890  38.4318220
  70.2144420  69.7588770  37.8582250  68.9942230  70.4829090  38.3861650
  75.9978870  71.7599160  41.4220530  75.1853380  71.3856050  41.0816410
  76.5020510  71.0044240  41.7241720  71.8290210  70.1723940  36.9720190
  72.3582970  69.3853740  36.8428140  72.4618530  70.8515130  37.2055720
  74.0228050  69.9099080  40.0265580  73.3930790  69.2086390  40.1935710
  73.4833190  70.6703210  39.8098740  74.1483610  69.1883060  52.4618070
  73.8667880  69.6916660  51.6978890  74.5303310  68.3904810  52.0960200
  70.2133040  73.6729830  19.9460700  69.3249740  74.0145800  19.8440580
  70.4974230  73.4730150  19.0541530  68.1766050  76.2735480  25.8300400
  68.7482160  75.5057680  25.8304040  68.1767590  76.5724240  24.9207010
  69.4190920  71.6819840  27.6169330  69.2393760  70.7845590  27.8972090
  69.0171000  72.2291710  28.2916280  72.3894430  72.2561330  20.9799080
  72.4961180  73.1565060  21.2867840  71.4786790  72.2079300  20.6893730
  70.0377590  74.1780340  26.2251670  70.7187700  74.4418710  26.8439070
  69.7225640  73.3381210  26.5589680  74.2302160  75.2247700  25.3124260
  74.7380380  75.7228670  25.9529280  74.7615400  74.4482900  25.1363620
  72.5138260  69.8646260  29.5787680  72.5156700  70.3818650  28.7733580
  71.6842570  69.3876440  29.5557610  72.1953590  71.5756220  27.5858130
  72.5370400  72.4198270  27.2912000  71.2569400  71.7239960  27.7023470
  75.8781480  69.0638490  23.9102720  76.1856460  68.5085380  23.1938220
  74.9482180  69.1982950  23.7275710  73.8718880  77.6552060  23.4282570
  73.4675880  76.9429310  22.9328470  73.9582000  77.3105300  24.3170610
  72.5847500  74.4295270  27.2081610  73.1362090  74.5390610  26.4334860
  73.0991010  74.8032870  27.9236840  70.5723510  76.5497040  20.9289220
  70.4521110  77.2759130  20.3170490  70.2624400  75.7799950  20.4517130
  73.0387170  69.8932110  24.3112890  72.5955320  70.6741650  23.9797410
  73.5972160  70.2162000  25.0183830  76.1545990  69.5142810  19.1918720
  75.5300170  69.5102680  19.9172030  76.0676110  68.6473770  18.7954690
  75.0763070  70.4379440  26.1702490  75.3735400  71.3442270  26.0894510
  75.6248630  69.9498220  25.5562060  72.8301390  75.0165680  22.0394140
  72.6042310  74.8002850  22.9440760  72.0493920  75.4494140  21.6940110
  75.2700600  75.9151260  32.7054410  75.1744200  74.9745990  32.5554810
  76.1132580  76.1366330  32.3102480  70.4011140  72.3264930  30.8588190
  70.0074530  73.1740140  31.0660970  69.7129540  71.6891300  31.0496830
  67.7028190  70.2493390  24.8918270  67.4141240  70.8196250  25.6043250
  68.4473950  69.7697840  25.2549500  67.8898420  74.1913510  16.1020990
  67.8073090  75.1344270  16.2435980  67.5381480  74.0488420  15.2233340
  75.6896550  72.9252540  25.1691340  75.6932610  72.4842490  24.3195880
  76.5847670  73.2469870  25.2763160  71.5398930  72.8079030  24.1285550
  71.1998980  73.2854260  24.8852600  70.7776250  72.3544150  23.7686650
  75.7516700  73.9264620  18.1598100  75.8729520  73.8851100  19.1083920
  75.3665210  74.7888770  18.0044830  74.7638200  76.2365760  17.5581400
  74.1955100  75.7884010  16.9317310  75.4727200  76.5958540  17.0246550
  75.9904520  76.9854320  26.9156750  76.3574650  76.5112890  27.6618090
  75.8009580  77.8595890  27.2565090  68.8545010  71.7298010  23.0450220
  68.5691930  71.3653680  23.8828840  68.7923870  70.9978470  22.4313360
  73.7803890  76.0262960  29.2340960  73.4760960  76.9054940  29.4591320
  74.7350350  76.0862750  29.2698400  69.8367620  76.8665700  30.3812320
  69.4782560  77.5319550  30.9685660  69.5422180  76.0349250  30.7524940
  73.0380740  77.3249940  33.2651870  72.7380880  77.4707120  32.3679690
  73.8091980  76.7655230  33.1725260  68.3475670  76.8656960  17.0046920
  69.2170520  77.1481760  17.2882840  67.8565990  77.6792830  16.8895730
  71.4122260  68.5967820  21.5977720  71.2836890  68.5885720  22.5462640
  70.5884280  68.9350910  21.2468730  68.4116190  70.3558940  31.0584420
  67.6974710  70.5555860  31.6637030  68.8311230  69.5798510  31.4299220
  75.2401030  74.0824140  21.0331310  74.5317180  74.5510480  21.4744920
  75.5245510  73.4246150  21.6676500  73.4436050  72.3909220  18.4082020
  74.2926580  72.8279370  18.3422210  73.0767320  72.7029480  19.2354080
  71.0374230  76.0766650  17.5650440  71.1177820  75.1294160  17.6767840
  71.9293980  76.4073530  17.6711100  68.5645030  77.8981570  32.8006610
  69.0684050  77.3188850  33.3722840  67.8252450  78.1821800  33.3382980
  70.5968110  76.0411160  33.6956680  70.6373450  75.7425030  34.6041910
  71.4513610  76.4418770  33.5364200  72.5373920  74.6203260  31.6631170
  72.0070380  74.1294210  31.0354510  73.2061990  75.0487460  31.1289100
  73.0246220  71.5865630  31.7428460  72.9303090  70.9686380  31.0179330
  72.4443610  72.3131920  31.5158370  75.7907660  70.1438870  28.7755850
  75.3424960  70.1663130  27.9301400  75.1572860  69.7457890  29.3726150
  73.2705400  74.7139940  15.8018350  73.0694460  73.8507300  16.1631690
  73.0997450  74.6273300  14.8639950  75.2999880  73.3130730  32.0381950
  75.8899570  73.0046580  32.7259770  74.4820120  72.8410480  32.1941850
  72.0688200  71.8140560  15.7896230  72.3714100  71.8207990  14.8815380
  72.8082790  71.4638420  16.2863890  75.2873130  70.7575180  16.7752430
  74.9395130  70.0799170  16.1954880  75.4885900  70.2964690  17.5895820
  68.6278770  77.2862830  23.1716800  67.9727610  77.0174470  22.5276500
  69.4656720  77.1767310  22.7218780  69.6654700  77.6715400  27.7120140
  70.0327740  77.5842800  28.5916160  69.0965520  76.9081950  27.6127000
  69.2170700  74.5824490  31.6178560  68.3226750  74.5491250  31.9572270
  69.7568250  74.7811280  32.3829810  67.8416850  74.4961760  19.1142130
  66.9380930  74.7591960  18.9393790  68.3257470  74.7672930  18.3342090
  70.3844060  73.5527300  17.0236510  71.0935760  73.1310520  16.5383790
  69.6684000  73.6202530  16.3919860  70.0318220  69.6066630  16.0639160
  70.7546350  70.1475570  16.3820380  70.3042740  69.3330050  15.1880700
  69.7210410  68.8572820  25.9661780  70.3686600  68.3070200  25.5256940
  70.1412250  69.1115970  26.7877590  69.4742410  69.0128490  28.7087100
  69.1257230  69.4692310  29.4745280  69.1430110  68.1185620  28.7909530
  70.1463050  68.5404690  31.9837870  70.6946040  68.3592740  31.2203980
  70.2118360  67.7498800  32.5194180  69.4565060  69.6459890  19.6574730
  70.2144420  69.7588770  19.0838760  68.9942230  70.4829090  19.6118160
  75.9978870  71.7599160  22.6477040  75.1853380  71.3856050  22.3072920
  76.5020510  71.0044240  22.9498230  71.8290210  70.1723940  18.1976700
  72.3582970  69.3853740  18.0684650  72.4618530  70.8515130  18.4312230
  74.0228050  69.9099080  21.2522090  73.3930790  69.2086390  21.4192220
  73.4833190  70.6703210  21.0355250  74.1483610  69.1883060  33.6874580
  73.8667880  69.6916660  32.9235400  74.5303310  68.3904810  33.3216710
  68.1766050  76.2735480   7.0556910  68.7482160  75.5057680   7.0560550
  68.1767590  76.5724240   6.1463520  69.4190920  71.6819840   8.8425840
  69.2393760  70.7845590   9.1228600  69.0171000  72.2291710   9.5172790
  72.3894430  72.2561330   2.2055590  72.4961180  73.1565060   2.5124350
  71.4786790  72.2079300   1.9150240  70.0377590  74.1780340   7.4508180
  70.7187700  74.4418710   8.0695580  69.7225640  73.3381210   7.7846190
  74.2302160  75.2247700   6.5380770  74.7380380  75.7228670   7.1785790
  74.7615400  74.4482900   6.3620130  72.5138260  69.8646260  10.8044190
  72.5156700  70.3818650   9.9990090  71.6842570  69.3876440  10.7814120
  72.1953590  71.5756220   8.8114640  72.5370400  72.4198270   8.5168510
  71.2569400  71.7239960   8.9279980  75.8781480  69.0638490   5.1359230
  76.1856460  68.5085380   4.4194730  74.9482180  69.1982950   4.9532220
  73.8718880  77.6552060   4.6539080  73.4675880  76.9429310   4.1584980
  73.9582000  77.3105300   5.5427120  72.5847500  74.4295270   8.4338120
  73.1362090  74.5390610   7.6591370  73.0991010  74.8032870   9.1493350
  70.5723510  76.5497040   2.1545730  70.4521110  77.2759130   1.5427000
  70.2624400  75.7799950   1.6773640  73.0387170  69.8932110   5.5369400
  72.5955320  70.6741650   5.2053920  73.5972160  70.2162000   6.2440340
  75.0763070  70.4379440   7.3959000  75.3735400  71.3442270   7.3151020
  75.6248630  69.9498220   6.7818570  72.8301390  75.0165680   3.2650650
  72.6042310  74.8002850   4.1697270  72.0493920  75.4494140   2.9196620
  75.2700600  75.9151260  13.9310920  75.1744200  74.9745990  13.7811320
  76.1132580  76.1366330  13.5358990  70.4011140  72.3264930  12.0844700
  70.0074530  73.1740140  12.2917480  69.7129540  71.6891300  12.2753340
  67.7028190  70.2493390   6.1174780  67.4141240  70.8196250   6.8299760
  68.4473950  69.7697840   6.4806010  75.6896550  72.9252540   6.3947850
  75.6932610  72.4842490   5.5452390  76.5847670  73.2469870   6.5019670
  71.5398930  72.8079030   5.3542060  71.1998980  73.2854260   6.1109110
  70.7776250  72.3544150   4.9943160  75.9904520  76.9854320   8.1413260
  76.3574650  76.5112890   8.8874600  75.8009580  77.8595890   8.4821600
  68.8545010  71.7298010   4.2706730  68.5691930  71.3653680   5.1085350
  68.7923870  70.9978470   3.6569870  73.7803890  76.0262960  10.4597470
  73.4760960  76.9054940  10.6847830  74.7350350  76.0862750  10.4954910
  69.8367620  76.8665700  11.6068830  69.4782560  77.5319550  12.1942170
  69.5422180  76.0349250  11.9781450  73.0380740  77.3249940  14.4908380
  72.7380880  77.4707120  13.5936200  73.8091980  76.7655230  14.3981770
  71.4122260  68.5967820   2.8234230  71.2836890  68.5885720   3.7719150
  70.5884280  68.9350910   2.4725240  68.4116190  70.3558940  12.2840930
  67.6974710  70.5555860  12.8893540  68.8311230  69.5798510  12.6555730
  75.2401030  74.0824140   2.2587820  74.5317180  74.5510480   2.7001430
  75.5245510  73.4246150   2.8933010  68.5645030  77.8981570  14.0263120
  69.0684050  77.3188850  14.5979350  67.8252450  78.1821800  14.5639490
  70.5968110  76.0411160  14.9213190  70.6373450  75.7425030  15.8298420
  71.4513610  76.4418770  14.7620710  72.5373920  74.6203260  12.8887680
  72.0070380  74.1294210  12.2611020  73.2061990  75.0487460  12.3545610
  73.0246220  71.5865630  12.9684970  72.9303090  70.9686380  12.2435840
  72.4443610  72.3131920  12.7414880  75.7907660  70.1438870  10.0012360
  75.3424960  70.1663130   9.1557910  75.1572860  69.7457890  10.5982660
  75.2999880  73.3130730  13.2638460  75.8899570  73.0046580  13.9516280
  74.4820120  72.8410480  13.4198360  68.6278770  77.2862830   4.3973310
  67.9727610  77.0174470   3.7533010  69.4656720  77.1767310   3.9475290
  69.6654700  77.6715400   8.9376650  70.0327740  77.5842800   9.8172670
  69.0965520  76.9081950   8.8383510  69.2170700  74.5824490  12.8435070
  68.3226750  74.5491250  13.1828780  69.7568250  74.7811280  13.6086320
  69.7210410  68.8572820   7.1918290  70.3686600  68.3070200   6.7513450
  70.1412250  69.1115970   8.0134100  69.4742410  69.0128490   9.9343610
  69.1257230  69.4692310  10.7001790  69.1430110  68.1185620  10.0166040
  70.1463050  68.5404690  13.2094380  70.6946040  68.3592740  12.4460490
  70.2118360  67.7498800  13.7450690  75.9978870  71.7599160   3.8733550
  75.1853380  71.3856050   3.5329430  76.5020510  71.0044240   4.1754740
  74.0228050  69.9099080   2.4778600  73.3930790  69.2086390   2.6448730
  73.4833190  70.6703210   2.2611760  74.1483610  69.1883060  14.9131090
  73.8667880  69.6916660  14.1491910  74.5303310  68.3904810  14.5473220
  71.8041090  59.9384450  82.4848780  70.9725970  59.6833160  82.8845290
  72.4122070  60.0095220  83.2206700  71.7842350  63.9724540  82.6806800
  72.0870390  63.0822280  82.5017020  72.5285940  64.5294760  82.4529050
  70.2133040  54.8986340  76.2691170  69.3249740  55.2402310  76.1671050
  70.4974230  54.6986660  75.3772000  68.1766050  57.4991990  82.1530870
  68.7482160  56.7314190  82.1534510  68.1767590  57.7980750  81.2437480
  69.4190920  52.9076350  83.9399800  69.2393760  52.0102100  84.2202560
  69.0171000  53.4548220  84.6146750  72.3894430  53.4817840  77.3029550
  72.4961180  54.3821570  77.6098310  71.4786790  53.4335810  77.0124200
  70.0377590  55.4036850  82.5482140  70.7187700  55.6675220  83.1669540
  69.7225640  54.5637720  82.8820150  74.2302160  56.4504210  81.6354730
  74.7380380  56.9485180  82.2759750  74.7615400  55.6739410  81.4594090
  72.5138260  51.0902770  85.9018150  72.5156700  51.6075160  85.0964050
  71.6842570  50.6132950  85.8788080  73.7641110  60.7297950  84.0791650
  73.4310490  61.3566870  84.7212720  73.9407790  61.2559830  83.2993320
  72.1953590  52.8012730  83.9088600  72.5370400  53.6454780  83.6142470
  71.2569400  52.9496470  84.0253940  72.9760210  62.6978750  85.8940830
  73.5934210  63.3729830  85.6125280  72.1153330  63.1066730  85.8028330
  68.2692550  61.8878610  74.7747680  67.8920530  62.3765710  74.0432580
  68.5265620  62.5603890  75.4054210  75.8781480  50.2895000  80.2333190
  76.1856460  49.7341890  79.5168690  74.9482180  50.4239460  80.0506180
  73.8718880  58.8808570  79.7513040  73.4675880  58.1685820  79.2558940
  73.9582000  58.5361810  80.6401080  74.3400580  62.5676130  81.9152250
  74.0428870  61.9621600  81.2360030  75.2900400  62.6053440  81.8041610
  72.5847500  55.6551780  83.5312080  73.1362090  55.7647120  82.7565330
  73.0991010  56.0289380  84.2467310  70.5723510  57.7753550  77.2519690
  70.4521110  58.5015640  76.6400960  70.2624400  57.0056460  76.7747600
  68.2108880  60.9468690  83.0588330  68.2889300  61.0817460  82.1144050
  68.8250560  60.2384580  83.2516450  69.4556510  62.6468880  79.4694510
  69.0484590  62.7883470  78.6148110  70.3469520  62.3629040  79.2665720
  73.7278170  66.8614660  77.5817180  73.5520650  65.9450200  77.3684980
  72.8733910  67.2201950  77.8214980  68.2668400  61.9882860  85.5982790
  68.4299440  61.5188220  84.7802160  68.7320850  61.4806420  86.2631630
  73.0387170  51.1188620  80.6343360  72.5955320  51.8998160  80.3027880
  73.5972160  51.4418510  81.3414300  76.1545990  50.7399320  75.5149190
  75.5300170  50.7359190  76.2402500  76.0676110  49.8730280  75.1185160
  75.0763070  51.6635950  82.4932960  75.3735400  52.5698780  82.4124980
  75.6248630  51.1754730  81.8792530  72.8301390  56.2422190  78.3624610
  72.6042310  56.0259360  79.2671230  72.0493920  56.6750650  78.0170580
  67.7028190  51.4749900  81.2148740  67.4141240  52.0452760  81.9273720
  68.4473950  50.9954350  81.5779970  67.8898420  55.4170020  72.4251460
  67.8073090  56.3600780  72.5666450  67.5381480  55.2744930  71.5463810
  75.6896550  54.1509050  81.4921810  75.6932610  53.7099000  80.6426350
  76.5847670  54.4726380  81.5993630  71.5398930  54.0335540  80.4516020
  71.1998980  54.5110770  81.2083070  70.7776250  53.5800660  80.0917120
  75.7516700  55.1521130  74.4828570  75.8729520  55.1107610  75.4314390
  75.3665210  56.0145280  74.3275300  74.7638200  57.4622270  73.8811870
  74.1955100  57.0140520  73.2547780  75.4727200  57.8215050  73.3477020
  75.9904520  58.2110830  83.2387220  76.3574650  57.7369400  83.9848560
  75.8009580  59.0852400  83.5795560  68.8545010  52.9554520  79.3680690
  68.5691930  52.5910190  80.2059310  68.7923870  52.2234980  78.7543830
  73.7803890  57.2519470  85.5571430  73.4760960  58.1311450  85.7821790
  74.7350350  57.3119260  85.5928870  72.3085680  61.4580460  76.1538280
  71.5347940  60.9178080  75.9937000  73.0380310  60.9387070  75.8156040
  72.3523080  61.1260840  79.7917090  72.8701750  60.3229100  79.7373980
  71.9007100  61.0639980  80.6333920  76.2083270  62.4740650  77.8360310
  76.8954400  63.0209860  78.2167900  75.4215690  63.0181380  77.8709920
  68.3475670  58.0913470  73.3277390  69.2170520  58.3738270  73.6113310
  67.8565990  58.9049340  73.2126200  75.5110480  59.4786680  77.4485670
  75.9673260  60.2891930  77.6745860  75.1598690  59.1609820  78.2804160
  71.4122260  49.8224330  77.9208190  71.2836890  49.8142230  78.8693110
  70.5884280  50.1607420  77.5699200  68.7146920  67.3040850  73.8939020
  69.0744560  67.9030190  73.2396290  68.5739260  67.8500740  74.6674050
  74.7315540  64.6872050  74.7112690  74.7225640  65.4201740  74.0957200
  73.8113900  64.4403630  74.8039650  70.3322180  59.9086940  75.4559450
  69.7250130  60.6485840  75.4654750  70.8071530  59.9986300  74.6297650
  75.2401030  55.3080650  77.3561780  74.5317180  55.7766990  77.7975390
  75.5245510  54.6502660  77.9906970  76.3593250  67.2686610  78.0685550
  76.6134750  67.2308000  77.1464920  75.4105730  67.1419940  78.0613800
  73.4436050  53.6165730  74.7312490  74.2926580  54.0535880  74.6652680
  73.0767320  53.9285990  75.5584550  72.3427470  59.8698090  73.2048020
  73.1090740  59.7579450  73.7673450  72.4202160  59.1736060  72.5524790
  71.0374230  57.3023160  73.8880910  71.1177820  56.3550670  73.9998310
  71.9293980  57.6330040  73.9941570  71.8388940  67.4518550  80.9915450
  72.5751420  66.9034010  81.2624020  72.2229860  68.3174560  80.8521440
  68.7234420  63.5192120  76.8656960  67.7974200  63.7613260  76.8562370
  69.1890850  64.3466380  76.7441710  74.9491250  66.6248860  72.8141020
  75.7419860  66.9137690  72.3622810  74.4295600  66.1941030  72.1353500
  75.4668650  61.8452270  72.6783370  75.3619290  61.2304620  73.4044750
  75.2992870  61.3218160  71.8946380  74.3746500  59.8663220  75.1790660
  74.7962920  59.7003090  76.0222050  74.4997340  59.0563450  74.6845800
  75.7907660  51.3695380  85.0986320  75.3424960  51.3919640  84.2531870
  75.1572860  50.9714400  85.6956620  76.1967210  60.2649710  85.7198760
  76.6155320  61.1082440  85.5475000  75.2775840  60.4021750  85.4905540
  73.2705400  55.9396450  72.1248820  73.0694460  55.0763810  72.4862160
  73.0997450  55.8529810  71.1870420  72.0688200  53.0397070  72.1126700
  72.3714100  53.0464500  71.2045850  72.8082790  52.6894930  72.6094360
  75.2873130  51.9831690  73.0982900  74.9395130  51.3055680  72.5185350
  75.4885900  51.5221200  73.9126290  71.0918330  62.3439490  72.9456500
  71.5293200  62.8869160  73.6014080  71.5766060  61.5186440  72.9552840
  68.3064130  65.1328520  80.3976760  68.6367140  64.2649580  80.1655400
  68.7355130  65.3387040  81.2281720  72.9026050  63.4637530  78.0578730
  72.6021590  63.3402500  78.9582640  72.7963540  62.6046120  77.6494460
  68.7954340  65.9999110  83.1358390  68.3585330  66.1799910  83.9682540
  69.3632020  66.7573730  82.9940110  68.6278770  58.5119340  79.4947270
  67.9727610  58.2430980  78.8506970  69.4656720  58.4023820  79.0449250
  69.6654700  58.8971910  84.0350610  70.0327740  58.8099310  84.9146630
  69.0965520  58.1338460  83.9357470  67.8416850  55.7218270  75.4372600
  66.9380930  55.9848470  75.2624260  68.3257470  55.9929440  74.6572560
  70.3844060  54.7783810  73.3466980  71.0935760  54.3567030  72.8614260
  69.6684000  54.8459040  72.7150330  70.0318220  50.8323140  72.3869630
  70.7546350  51.3732080  72.7050850  70.3042740  50.5586560  71.5111170
  69.7210410  50.0829330  82.2892250  70.3686600  49.5326710  81.8487410
  70.1412250  50.3372480  83.1108060  69.4742410  50.2385000  85.0317570
  69.1257230  50.6948820  85.7975750  69.1430110  49.3442130  85.1140000
  74.7812810  64.9664190  84.7980480  74.5404170  65.2338750  83.9111000
  75.7215450  65.1369920  84.8531340  70.5507040  63.7225230  85.2676580
  69.8241100  63.1030520  85.2002530  70.6116190  64.1165840  84.3974660
  74.1552140  65.9370230  82.0525990  74.6717160  65.3257590  81.5274250
  74.8049520  66.4399010  82.5437000  68.8337040  67.0399620  78.4773340
  68.6659080  66.4070300  79.1755230  67.9671550  67.2459020  78.1267530
  69.4565060  50.8716400  75.9805200  70.2144420  50.9845280  75.4069230
  68.9942230  51.7085600  75.9348630  75.9978870  52.9855670  78.9707510
  75.1853380  52.6112560  78.6303390  76.5020510  52.2300750  79.2728700
  70.4399740  65.7332850  75.9223480  69.9147360  66.1140880  75.2185440
  70.3644320  66.3583620  76.6433190  71.8290210  51.3980450  74.5207170
  72.3582970  50.6110250  74.3915120  72.4618530  52.0771640  74.7542700
  74.0228050  51.1355590  77.5752560  73.3930790  50.4342900  77.7422690
  73.4833190  51.8959720  77.3585720  73.0392710  67.6815230  74.7972730
  73.7711530  67.3974510  74.2496620  73.2986380  67.4428510  75.6872110
  72.2007500  63.7979960  74.8019060  71.5716380  64.2665060  75.3504890
  72.3155330  62.9529180  75.2365250  71.8041090  59.9384450  63.7105290
  70.9725970  59.6833160  64.1101800  72.4122070  60.0095220  64.4463210
  71.7842350  63.9724540  63.9063310  72.0870390  63.0822280  63.7273530
  72.5285940  64.5294760  63.6785560  70.2133040  54.8986340  57.4947680
  69.3249740  55.2402310  57.3927560  70.4974230  54.6986660  56.6028510
  68.1766050  57.4991990  63.3787380  68.7482160  56.7314190  63.3791020
  68.1767590  57.7980750  62.4693990  69.4190920  52.9076350  65.1656310
  69.2393760  52.0102100  65.4459070  69.0171000  53.4548220  65.8403260
  72.3894430  53.4817840  58.5286060  72.4961180  54.3821570  58.8354820
  71.4786790  53.4335810  58.2380710  70.0377590  55.4036850  63.7738650
  70.7187700  55.6675220  64.3926050  69.7225640  54.5637720  64.1076660
  74.2302160  56.4504210  62.8611240  74.7380380  56.9485180  63.5016260
  74.7615400  55.6739410  62.6850600  72.5138260  51.0902770  67.1274660
  72.5156700  51.6075160  66.3220560  71.6842570  50.6132950  67.1044590
  73.7641110  60.7297950  65.3048160  73.4310490  61.3566870  65.9469230
  73.9407790  61.2559830  64.5249830  72.1953590  52.8012730  65.1345110
  72.5370400  53.6454780  64.8398980  71.2569400  52.9496470  65.2510450
  72.9760210  62.6978750  67.1197340  73.5934210  63.3729830  66.8381790
  72.1153330  63.1066730  67.0284840  68.2692550  61.8878610  56.0004190
  67.8920530  62.3765710  55.2689090  68.5265620  62.5603890  56.6310720
  75.8781480  50.2895000  61.4589700  76.1856460  49.7341890  60.7425200
  74.9482180  50.4239460  61.2762690  73.8718880  58.8808570  60.9769550
  73.4675880  58.1685820  60.4815450  73.9582000  58.5361810  61.8657590
  74.3400580  62.5676130  63.1408760  74.0428870  61.9621600  62.4616540
  75.2900400  62.6053440  63.0298120  72.5847500  55.6551780  64.7568590
  73.1362090  55.7647120  63.9821840  73.0991010  56.0289380  65.4723820
  73.4319010  62.3057820  69.7916560  72.5347540  62.5297790  70.0389960
  73.4571880  62.4292760  68.8427960  72.2590230  59.1771140  68.3673930
  72.1198000  60.0493940  68.7361330  71.3771590  58.8343950  68.2221870
  74.0570580  65.1192840  70.5759080  74.0286010  65.5235790  69.7087510
  73.8935550  64.1903200  70.4130680  70.5723510  57.7753550  58.4776200
  70.4521110  58.5015640  57.8657470  70.2624400  57.0056460  58.0004110
  68.2108880  60.9468690  64.2844840  68.2889300  61.0817460  63.3400560
  68.8250560  60.2384580  64.4772960  69.4556510  62.6468880  60.6951020
  69.0484590  62.7883470  59.8404620  70.3469520  62.3629040  60.4922230
  73.7278170  66.8614660  58.8073690  73.5520650  65.9450200  58.5941490
  72.8733910  67.2201950  59.0471490  68.2668400  61.9882860  66.8239300
  68.4299440  61.5188220  66.0058670  68.7320850  61.4806420  67.4888140
  73.0387170  51.1188620  61.8599870  72.5955320  51.8998160  61.5284390
  73.5972160  51.4418510  62.5670810  76.1545990  50.7399320  56.7405700
  75.5300170  50.7359190  57.4659010  76.0676110  49.8730280  56.3441670
  75.0763070  51.6635950  63.7189470  75.3735400  52.5698780  63.6381490
  75.6248630  51.1754730  63.1049040  72.8301390  56.2422190  59.5881120
  72.6042310  56.0259360  60.4927740  72.0493920  56.6750650  59.2427090
  75.2700600  57.1407770  70.2541390  75.1744200  56.2002500  70.1041790
  76.1132580  57.3622840  69.8589460  70.4011140  53.5521440  68.4075170
  70.0074530  54.3996650  68.6147950  69.7129540  52.9147810  68.5983810
  67.7028190  51.4749900  62.4405250  67.4141240  52.0452760  63.1530230
  68.4473950  50.9954350  62.8036480  67.8898420  55.4170020  53.6507970
  67.8073090  56.3600780  53.7922960  67.5381480  55.2744930  52.7720320
  75.6896550  54.1509050  62.7178320  75.6932610  53.7099000  61.8682860
  76.5847670  54.4726380  62.8250140  71.5398930  54.0335540  61.6772530
  71.1998980  54.5110770  62.4339580  70.7776250  53.5800660  61.3173630
  75.7516700  55.1521130  55.7085080  75.8729520  55.1107610  56.6570900
  75.3665210  56.0145280  55.5531810  74.7638200  57.4622270  55.1068380
  74.1955100  57.0140520  54.4804290  75.4727200  57.8215050  54.5733530
  69.8407380  61.3634290  68.9835110  69.4562170  60.7227960  69.5818070
  70.1519570  62.0670410  69.5529840  75.9904520  58.2110830  64.4643730
  76.3574650  57.7369400  65.2105070  75.8009580  59.0852400  64.8052070
  68.8545010  52.9554520  60.5937200  68.5691930  52.5910190  61.4315820
  68.7923870  52.2234980  59.9800340  73.7803890  57.2519470  66.7827940
  73.4760960  58.1311450  67.0078300  74.7350350  57.3119260  66.8185380
  72.3085680  61.4580460  57.3794790  71.5347940  60.9178080  57.2193510
  73.0380310  60.9387070  57.0412550  72.3523080  61.1260840  61.0173600
  72.8701750  60.3229100  60.9630490  71.9007100  61.0639980  61.8590430
  69.8367620  58.0922210  67.9299300  69.4782560  58.7576060  68.5172640
  69.5422180  57.2605760  68.3011920  73.0380740  58.5506450  70.8138850
  72.7380880  58.6963630  69.9166670  73.8091980  57.9911740  70.7212240
  76.2083270  62.4740650  59.0616820  76.8954400  63.0209860  59.4424410
  75.4215690  63.0181380  59.0966430  68.3475670  58.0913470  54.5533900
  69.2170520  58.3738270  54.8369820  67.8565990  58.9049340  54.4382710
  75.5110480  59.4786680  58.6742180  75.9673260  60.2891930  58.9002370
  75.1598690  59.1609820  59.5060670  71.4122260  49.8224330  59.1464700
  71.2836890  49.8142230  60.0949620  70.5884280  50.1607420  58.7955710
  68.7146920  67.3040850  55.1195530  69.0744560  67.9030190  54.4652800
  68.5739260  67.8500740  55.8930560  68.4116190  51.5815450  68.6071400
  67.6974710  51.7812370  69.2124010  68.8311230  50.8055020  68.9786200
  68.6988780  65.5695710  69.5937930  68.8079900  64.6290450  69.4533320
  68.0469340  65.8350460  68.9451660  76.6901370  63.8411600  70.9936050
  76.3698240  63.1220840  71.5381740  76.0159730  64.5166670  71.0672110
  74.7315540  64.6872050  55.9369200  74.7225640  65.4201740  55.3213710
  73.8113900  64.4403630  56.0296160  70.3322180  59.9086940  56.6815960
  69.7250130  60.6485840  56.6911260  70.8071530  59.9986300  55.8554160
  75.2401030  55.3080650  58.5818290  74.5317180  55.7766990  59.0231900
  75.5245510  54.6502660  59.2163480  76.3593250  67.2686610  59.2942060
  76.6134750  67.2308000  58.3721430  75.4105730  67.1419940  59.2870310
  73.4436050  53.6165730  55.9569000  74.2926580  54.0535880  55.8909190
  73.0767320  53.9285990  56.7841060  72.3427470  59.8698090  54.4304530
  73.1090740  59.7579450  54.9929960  72.4202160  59.1736060  53.7781300
  71.0374230  57.3023160  55.1137420  71.1177820  56.3550670  55.2254820
  71.9293980  57.6330040  55.2198080  71.8388940  67.4518550  62.2171960
  72.5751420  66.9034010  62.4880530  72.2229860  68.3174560  62.0777950
  68.7234420  63.5192120  58.0913470  67.7974200  63.7613260  58.0818880
  69.1890850  64.3466380  57.9698220  70.8447220  66.6364620  71.4057540
  71.6459950  66.9576670  71.8192940  70.3299040  66.2760200  72.1277450
  74.9491250  66.6248860  54.0397530  75.7419860  66.9137690  53.5879320
  74.4295600  66.1941030  53.3610010  68.5645030  59.1238080  70.3493590
  69.0684050  58.5445360  70.9209820  67.8252450  59.4078310  70.8869960
  75.4668650  61.8452270  53.9039880  75.3619290  61.2304620  54.6301260
  75.2992870  61.3218160  53.1202890  75.6182970  60.5309070  69.8829110
  74.8528640  61.0994070  69.7983780  75.7998930  60.2385280  68.9897340
  70.5968110  57.2667670  71.2443660  70.6373450  56.9681540  72.1528890
  71.4513610  57.6675280  71.0851180  74.3746500  59.8663220  56.4047170
  74.7962920  59.7003090  57.2478560  74.4997340  59.0563450  55.9102310
  72.5373920  55.8459770  69.2118150  72.0070380  55.3550720  68.5841490
  73.2061990  56.2743970  68.6776080  73.0246220  52.8122140  69.2915440
  72.9303090  52.1942890  68.5666310  72.4443610  53.5388430  69.0645350
  75.7907660  51.3695380  66.3242830  75.3424960  51.3919640  65.4788380
  75.1572860  50.9714400  66.9213130  76.1967210  60.2649710  66.9455270
  76.6155320  61.1082440  66.7731510  75.2775840  60.4021750  66.7162050
  73.2705400  55.9396450  53.3505330  73.0694460  55.0763810  53.7118670
  73.0997450  55.8529810  52.4126930  74.0474630  66.5702720  68.0613000
  73.5095720  67.2948780  67.7421700  74.3008590  66.0933060  67.2710340
  75.2999880  54.5387240  69.5868930  75.8899570  54.2303090  70.2746750
  74.4820120  54.0666990  69.7428830  72.0688200  53.0397070  53.3383210
  72.3714100  53.0464500  52.4302360  72.8082790  52.6894930  53.8350870
  76.9036840  67.8053930  68.3199650  76.8295540  68.7089070  68.6272020
  76.0015680  67.4865830  68.2921720  75.2873130  51.9831690  54.3239410
  74.9395130  51.3055680  53.7441860  75.4885900  51.5221200  55.1382800
  71.0918330  62.3439490  54.1713010  71.5293200  62.8869160  54.8270590
  71.5766060  61.5186440  54.1809350  68.3064130  65.1328520  61.6233270
  68.6367140  64.2649580  61.3911910  68.7355130  65.3387040  62.4538230
  72.9026050  63.4637530  59.2835240  72.6021590  63.3402500  60.1839150
  72.7963540  62.6046120  58.8750970  68.7954340  65.9999110  64.3614900
  68.3585330  66.1799910  65.1939050  69.3632020  66.7573730  64.2196620
  68.6278770  58.5119340  60.7203780  67.9727610  58.2430980  60.0763480
  69.4656720  58.4023820  60.2705760  69.6654700  58.8971910  65.2607120
  70.0327740  58.8099310  66.1403140  69.0965520  58.1338460  65.1613980
  69.2170700  55.8081000  69.1665540  68.3226750  55.7747760  69.5059250
  69.7568250  56.0067790  69.9316790  67.8416850  55.7218270  56.6629110
  66.9380930  55.9848470  56.4880770  68.3257470  55.9929440  55.8829070
  70.3844060  54.7783810  54.5723490  71.0935760  54.3567030  54.0870770
  69.6684000  54.8459040  53.9406840  70.0318220  50.8323140  53.6126140
  70.7546350  51.3732080  53.9307360  70.3042740  50.5586560  52.7367680
  69.7210410  50.0829330  63.5148760  70.3686600  49.5326710  63.0743920
  70.1412250  50.3372480  64.3364570  69.4742410  50.2385000  66.2574080
  69.1257230  50.6948820  67.0232260  69.1430110  49.3442130  66.3396510
  71.0806780  63.4104600  70.4227270  71.0376410  63.0397510  71.3041730
  71.2117790  64.3482170  70.5629090  74.7812810  64.9664190  66.0236990
  74.5404170  65.2338750  65.1367510  75.7215450  65.1369920  66.0787850
  70.1463050  49.7661200  69.5324850  70.6946040  49.5849250  68.7690960
  70.2118360  48.9755310  70.0681160  70.9194810  66.3566850  67.5425050
  70.3255130  66.2251550  68.2815090  70.9118650  65.5204990  67.0767150
  70.5507040  63.7225230  66.4933090  69.8241100  63.1030520  66.4259040
  70.6116190  64.1165840  65.6231170  74.1552140  65.9370230  63.2782500
  74.6717160  65.3257590  62.7530760  74.8049520  66.4399010  63.7693510
  68.8337040  67.0399620  59.7029850  68.6659080  66.4070300  60.4011740
  67.9671550  67.2459020  59.3524040  69.4565060  50.8716400  57.2061710
  70.2144420  50.9845280  56.6325740  68.9942230  51.7085600  57.1605140
  75.9978870  52.9855670  60.1964020  75.1853380  52.6112560  59.8559900
  76.5020510  52.2300750  60.4985210  70.4399740  65.7332850  57.1479990
  69.9147360  66.1140880  56.4441950  70.3644320  66.3583620  57.8689700
  71.8290210  51.3980450  55.7463680  72.3582970  50.6110250  55.6171630
  72.4618530  52.0771640  55.9799210  74.0228050  51.1355590  58.8009070
  73.3930790  50.4342900  58.9679200  73.4833190  51.8959720  58.5842230
  74.1483610  50.4139570  71.2361560  73.8667880  50.9173170  70.4722380
  74.5303310  49.6161320  70.8703690  73.0392710  67.6815230  56.0229240
  73.7711530  67.3974510  55.4753130  73.2986380  67.4428510  56.9128620
  72.2007500  63.7979960  56.0275570  71.5716380  64.2665060  56.5761400
  72.3155330  62.9529180  56.4621760  71.8041090  59.9384450  44.9361800
  70.9725970  59.6833160  45.3358310  72.4122070  60.0095220  45.6719720
  71.7842350  63.9724540  45.1319820  72.0870390  63.0822280  44.9530040
  72.5285940  64.5294760  44.9042070  70.2133040  54.8986340  38.7204190
  69.3249740  55.2402310  38.6184070  70.4974230  54.6986660  37.8285020
  68.1766050  57.4991990  44.6043890  68.7482160  56.7314190  44.6047530
  68.1767590  57.7980750  43.6950500  69.4190920  52.9076350  46.3912820
  69.2393760  52.0102100  46.6715580  69.0171000  53.4548220  47.0659770
  72.3894430  53.4817840  39.7542570  72.4961180  54.3821570  40.0611330
  71.4786790  53.4335810  39.4637220  70.0377590  55.4036850  44.9995160
  70.7187700  55.6675220  45.6182560  69.7225640  54.5637720  45.3333170
  74.2302160  56.4504210  44.0867750  74.7380380  56.9485180  44.7272770
  74.7615400  55.6739410  43.9107110  72.5138260  51.0902770  48.3531170
  72.5156700  51.6075160  47.5477070  71.6842570  50.6132950  48.3301100
  73.7641110  60.7297950  46.5304670  73.4310490  61.3566870  47.1725740
  73.9407790  61.2559830  45.7506340  72.1953590  52.8012730  46.3601620
  72.5370400  53.6454780  46.0655490  71.2569400  52.9496470  46.4766960
  72.9760210  62.6978750  48.3453850  73.5934210  63.3729830  48.0638300
  72.1153330  63.1066730  48.2541350  68.2692550  61.8878610  37.2260700
  67.8920530  62.3765710  36.4945600  68.5265620  62.5603890  37.8567230
  75.8781480  50.2895000  42.6846210  76.1856460  49.7341890  41.9681710
  74.9482180  50.4239460  42.5019200  73.8718880  58.8808570  42.2026060
  73.4675880  58.1685820  41.7071960  73.9582000  58.5361810  43.0914100
  74.3400580  62.5676130  44.3665270  74.0428870  61.9621600  43.6873050
  75.2900400  62.6053440  44.2554630  72.5847500  55.6551780  45.9825100
  73.1362090  55.7647120  45.2078350  73.0991010  56.0289380  46.6980330
  73.4319010  62.3057820  51.0173070  72.5347540  62.5297790  51.2646470
  73.4571880  62.4292760  50.0684470  72.2590230  59.1771140  49.5930440
  72.1198000  60.0493940  49.9617840  71.3771590  58.8343950  49.4478380
  74.0570580  65.1192840  51.8015590  74.0286010  65.5235790  50.9344020
  73.8935550  64.1903200  51.6387190  70.5723510  57.7753550  39.7032710
  70.4521110  58.5015640  39.0913980  70.2624400  57.0056460  39.2260620
  68.2108880  60.9468690  45.5101350  68.2889300  61.0817460  44.5657070
  68.8250560  60.2384580  45.7029470  69.4556510  62.6468880  41.9207530
  69.0484590  62.7883470  41.0661130  70.3469520  62.3629040  41.7178740
  73.7278170  66.8614660  40.0330200  73.5520650  65.9450200  39.8198000
  72.8733910  67.2201950  40.2728000  68.2668400  61.9882860  48.0495810
  68.4299440  61.5188220  47.2315180  68.7320850  61.4806420  48.7144650
  73.0387170  51.1188620  43.0856380  72.5955320  51.8998160  42.7540900
  73.5972160  51.4418510  43.7927320  76.1545990  50.7399320  37.9662210
  75.5300170  50.7359190  38.6915520  76.0676110  49.8730280  37.5698180
  75.0763070  51.6635950  44.9445980  75.3735400  52.5698780  44.8638000
  75.6248630  51.1754730  44.3305550  72.8301390  56.2422190  40.8137630
  72.6042310  56.0259360  41.7184250  72.0493920  56.6750650  40.4683600
  75.2700600  57.1407770  51.4797900  75.1744200  56.2002500  51.3298300
  76.1132580  57.3622840  51.0845970  70.4011140  53.5521440  49.6331680
  70.0074530  54.3996650  49.8404460  69.7129540  52.9147810  49.8240320
  67.7028190  51.4749900  43.6661760  67.4141240  52.0452760  44.3786740
  68.4473950  50.9954350  44.0292990  67.8898420  55.4170020  34.8764480
  67.8073090  56.3600780  35.0179470  67.5381480  55.2744930  33.9976830
  75.6896550  54.1509050  43.9434830  75.6932610  53.7099000  43.0939370
  76.5847670  54.4726380  44.0506650  71.5398930  54.0335540  42.9029040
  71.1998980  54.5110770  43.6596090  70.7776250  53.5800660  42.5430140
  75.7516700  55.1521130  36.9341590  75.8729520  55.1107610  37.8827410
  75.3665210  56.0145280  36.7788320  74.7638200  57.4622270  36.3324890
  74.1955100  57.0140520  35.7060800  75.4727200  57.8215050  35.7990040
  69.8407380  61.3634290  50.2091620  69.4562170  60.7227960  50.8074580
  70.1519570  62.0670410  50.7786350  75.9904520  58.2110830  45.6900240
  76.3574650  57.7369400  46.4361580  75.8009580  59.0852400  46.0308580
  68.8545010  52.9554520  41.8193710  68.5691930  52.5910190  42.6572330
  68.7923870  52.2234980  41.2056850  73.7803890  57.2519470  48.0084450
  73.4760960  58.1311450  48.2334810  74.7350350  57.3119260  48.0441890
  72.3085680  61.4580460  38.6051300  71.5347940  60.9178080  38.4450020
  73.0380310  60.9387070  38.2669060  72.3523080  61.1260840  42.2430110
  72.8701750  60.3229100  42.1887000  71.9007100  61.0639980  43.0846940
  69.8367620  58.0922210  49.1555810  69.4782560  58.7576060  49.7429150
  69.5422180  57.2605760  49.5268430  73.0380740  58.5506450  52.0395360
  72.7380880  58.6963630  51.1423180  73.8091980  57.9911740  51.9468750
  76.2083270  62.4740650  40.2873330  76.8954400  63.0209860  40.6680920
  75.4215690  63.0181380  40.3222940  68.3475670  58.0913470  35.7790410
  69.2170520  58.3738270  36.0626330  67.8565990  58.9049340  35.6639220
  75.5110480  59.4786680  39.8998690  75.9673260  60.2891930  40.1258880
  75.1598690  59.1609820  40.7317180  71.4122260  49.8224330  40.3721210
  71.2836890  49.8142230  41.3206130  70.5884280  50.1607420  40.0212220
  68.7146920  67.3040850  36.3452040  69.0744560  67.9030190  35.6909310
  68.5739260  67.8500740  37.1187070  68.4116190  51.5815450  49.8327910
  67.6974710  51.7812370  50.4380520  68.8311230  50.8055020  50.2042710
  68.6988780  65.5695710  50.8194440  68.8079900  64.6290450  50.6789830
  68.0469340  65.8350460  50.1708170  76.6901370  63.8411600  52.2192560
  76.3698240  63.1220840  52.7638250  76.0159730  64.5166670  52.2928620
  74.7315540  64.6872050  37.1625710  74.7225640  65.4201740  36.5470220
  73.8113900  64.4403630  37.2552670  70.3322180  59.9086940  37.9072470
  69.7250130  60.6485840  37.9167770  70.8071530  59.9986300  37.0810670
  75.2401030  55.3080650  39.8074800  74.5317180  55.7766990  40.2488410
  75.5245510  54.6502660  40.4419990  76.3593250  67.2686610  40.5198570
  76.6134750  67.2308000  39.5977940  75.4105730  67.1419940  40.5126820
  73.4436050  53.6165730  37.1825510  74.2926580  54.0535880  37.1165700
  73.0767320  53.9285990  38.0097570  72.3427470  59.8698090  35.6561040
  73.1090740  59.7579450  36.2186470  72.4202160  59.1736060  35.0037810
  71.0374230  57.3023160  36.3393930  71.1177820  56.3550670  36.4511330
  71.9293980  57.6330040  36.4454590  71.8388940  67.4518550  43.4428470
  72.5751420  66.9034010  43.7137040  72.2229860  68.3174560  43.3034460
  68.7234420  63.5192120  39.3169980  67.7974200  63.7613260  39.3075390
  69.1890850  64.3466380  39.1954730  70.8447220  66.6364620  52.6314050
  71.6459950  66.9576670  53.0449450  70.3299040  66.2760200  53.3533960
  74.9491250  66.6248860  35.2654040  75.7419860  66.9137690  34.8135830
  74.4295600  66.1941030  34.5866520  68.5645030  59.1238080  51.5750100
  69.0684050  58.5445360  52.1466330  67.8252450  59.4078310  52.1126470
  75.4668650  61.8452270  35.1296390  75.3619290  61.2304620  35.8557770
  75.2992870  61.3218160  34.3459400  75.6182970  60.5309070  51.1085620
  74.8528640  61.0994070  51.0240290  75.7998930  60.2385280  50.2153850
  70.5968110  57.2667670  52.4700170  70.6373450  56.9681540  53.3785400
  71.4513610  57.6675280  52.3107690  74.3746500  59.8663220  37.6303680
  74.7962920  59.7003090  38.4735070  74.4997340  59.0563450  37.1358820
  72.5373920  55.8459770  50.4374660  72.0070380  55.3550720  49.8098000
  73.2061990  56.2743970  49.9032590  73.0246220  52.8122140  50.5171950
  72.9303090  52.1942890  49.7922820  72.4443610  53.5388430  50.2901860
  75.7907660  51.3695380  47.5499340  75.3424960  51.3919640  46.7044890
  75.1572860  50.9714400  48.1469640  76.1967210  60.2649710  48.1711780
  76.6155320  61.1082440  47.9988020  75.2775840  60.4021750  47.9418560
  73.2705400  55.9396450  34.5761840  73.0694460  55.0763810  34.9375180
  73.0997450  55.8529810  33.6383440  74.0474630  66.5702720  49.2869510
  73.5095720  67.2948780  48.9678210  74.3008590  66.0933060  48.4966850
  75.2999880  54.5387240  50.8125440  75.8899570  54.2303090  51.5003260
  74.4820120  54.0666990  50.9685340  72.0688200  53.0397070  34.5639720
  72.3714100  53.0464500  33.6558870  72.8082790  52.6894930  35.0607380
  76.9036840  67.8053930  49.5456160  76.8295540  68.7089070  49.8528530
  76.0015680  67.4865830  49.5178230  75.2873130  51.9831690  35.5495920
  74.9395130  51.3055680  34.9698370  75.4885900  51.5221200  36.3639310
  71.0918330  62.3439490  35.3969520  71.5293200  62.8869160  36.0527100
  71.5766060  61.5186440  35.4065860  68.3064130  65.1328520  42.8489780
  68.6367140  64.2649580  42.6168420  68.7355130  65.3387040  43.6794740
  72.9026050  63.4637530  40.5091750  72.6021590  63.3402500  41.4095660
  72.7963540  62.6046120  40.1007480  68.7954340  65.9999110  45.5871410
  68.3585330  66.1799910  46.4195560  69.3632020  66.7573730  45.4453130
  68.6278770  58.5119340  41.9460290  67.9727610  58.2430980  41.3019990
  69.4656720  58.4023820  41.4962270  69.6654700  58.8971910  46.4863630
  70.0327740  58.8099310  47.3659650  69.0965520  58.1338460  46.3870490
  69.2170700  55.8081000  50.3922050  68.3226750  55.7747760  50.7315760
  69.7568250  56.0067790  51.1573300  67.8416850  55.7218270  37.8885620
  66.9380930  55.9848470  37.7137280  68.3257470  55.9929440  37.1085580
  70.3844060  54.7783810  35.7980000  71.0935760  54.3567030  35.3127280
  69.6684000  54.8459040  35.1663350  70.0318220  50.8323140  34.8382650
  70.7546350  51.3732080  35.1563870  70.3042740  50.5586560  33.9624190
  69.7210410  50.0829330  44.7405270  70.3686600  49.5326710  44.3000430
  70.1412250  50.3372480  45.5621080  69.4742410  50.2385000  47.4830590
  69.1257230  50.6948820  48.2488770  69.1430110  49.3442130  47.5653020
  71.0806780  63.4104600  51.6483780  71.0376410  63.0397510  52.5298240
  71.2117790  64.3482170  51.7885600  74.7812810  64.9664190  47.2493500
  74.5404170  65.2338750  46.3624020  75.7215450  65.1369920  47.3044360
  70.1463050  49.7661200  50.7581360  70.6946040  49.5849250  49.9947470
  70.2118360  48.9755310  51.2937670  70.9194810  66.3566850  48.7681560
  70.3255130  66.2251550  49.5071600  70.9118650  65.5204990  48.3023660
  70.5507040  63.7225230  47.7189600  69.8241100  63.1030520  47.6515550
  70.6116190  64.1165840  46.8487680  74.1552140  65.9370230  44.5039010
  74.6717160  65.3257590  43.9787270  74.8049520  66.4399010  44.9950020
  68.8337040  67.0399620  40.9286360  68.6659080  66.4070300  41.6268250
  67.9671550  67.2459020  40.5780550  69.4565060  50.8716400  38.4318220
  70.2144420  50.9845280  37.8582250  68.9942230  51.7085600  38.3861650
  75.9978870  52.9855670  41.4220530  75.1853380  52.6112560  41.0816410
  76.5020510  52.2300750  41.7241720  70.4399740  65.7332850  38.3736500
  69.9147360  66.1140880  37.6698460  70.3644320  66.3583620  39.0946210
  71.8290210  51.3980450  36.9720190  72.3582970  50.6110250  36.8428140
  72.4618530  52.0771640  37.2055720  74.0228050  51.1355590  40.0265580
  73.3930790  50.4342900  40.1935710  73.4833190  51.8959720  39.8098740
  74.1483610  50.4139570  52.4618070  73.8667880  50.9173170  51.6978890
  74.5303310  49.6161320  52.0960200  73.0392710  67.6815230  37.2485750
  73.7711530  67.3974510  36.7009640  73.2986380  67.4428510  38.1385130
  72.2007500  63.7979960  37.2532080  71.5716380  64.2665060  37.8017910
  72.3155330  62.9529180  37.6878270  71.8041090  59.9384450  26.1618310
  70.9725970  59.6833160  26.5614820  72.4122070  60.0095220  26.8976230
  71.7842350  63.9724540  26.3576330  72.0870390  63.0822280  26.1786550
  72.5285940  64.5294760  26.1298580  70.2133040  54.8986340  19.9460700
  69.3249740  55.2402310  19.8440580  70.4974230  54.6986660  19.0541530
  68.1766050  57.4991990  25.8300400  68.7482160  56.7314190  25.8304040
  68.1767590  57.7980750  24.9207010  69.4190920  52.9076350  27.6169330
  69.2393760  52.0102100  27.8972090  69.0171000  53.4548220  28.2916280
  72.3894430  53.4817840  20.9799080  72.4961180  54.3821570  21.2867840
  71.4786790  53.4335810  20.6893730  70.0377590  55.4036850  26.2251670
  70.7187700  55.6675220  26.8439070  69.7225640  54.5637720  26.5589680
  74.2302160  56.4504210  25.3124260  74.7380380  56.9485180  25.9529280
  74.7615400  55.6739410  25.1363620  72.5138260  51.0902770  29.5787680
  72.5156700  51.6075160  28.7733580  71.6842570  50.6132950  29.5557610
  73.7641110  60.7297950  27.7561180  73.4310490  61.3566870  28.3982250
  73.9407790  61.2559830  26.9762850  72.1953590  52.8012730  27.5858130
  72.5370400  53.6454780  27.2912000  71.2569400  52.9496470  27.7023470
  72.9760210  62.6978750  29.5710360  73.5934210  63.3729830  29.2894810
  72.1153330  63.1066730  29.4797860  68.2692550  61.8878610  18.4517210
  67.8920530  62.3765710  17.7202110  68.5265620  62.5603890  19.0823740
  75.8781480  50.2895000  23.9102720  76.1856460  49.7341890  23.1938220
  74.9482180  50.4239460  23.7275710  73.8718880  58.8808570  23.4282570
  73.4675880  58.1685820  22.9328470  73.9582000  58.5361810  24.3170610
  74.3400580  62.5676130  25.5921780  74.0428870  61.9621600  24.9129560
  75.2900400  62.6053440  25.4811140  72.5847500  55.6551780  27.2081610
  73.1362090  55.7647120  26.4334860  73.0991010  56.0289380  27.9236840
  73.4319010  62.3057820  32.2429580  72.5347540  62.5297790  32.4902980
  73.4571880  62.4292760  31.2940980  72.2590230  59.1771140  30.8186950
  72.1198000  60.0493940  31.1874350  71.3771590  58.8343950  30.6734890
  74.0570580  65.1192840  33.0272100  74.0286010  65.5235790  32.1600530
  73.8935550  64.1903200  32.8643700  70.5723510  57.7753550  20.9289220
  70.4521110  58.5015640  20.3170490  70.2624400  57.0056460  20.4517130
  68.2108880  60.9468690  26.7357860  68.2889300  61.0817460  25.7913580
  68.8250560  60.2384580  26.9285980  69.4556510  62.6468880  23.1464040
  69.0484590  62.7883470  22.2917640  70.3469520  62.3629040  22.9435250
  73.7278170  66.8614660  21.2586710  73.5520650  65.9450200  21.0454510
  72.8733910  67.2201950  21.4984510  68.2668400  61.9882860  29.2752320
  68.4299440  61.5188220  28.4571690  68.7320850  61.4806420  29.9401160
  73.0387170  51.1188620  24.3112890  72.5955320  51.8998160  23.9797410
  73.5972160  51.4418510  25.0183830  76.1545990  50.7399320  19.1918720
  75.5300170  50.7359190  19.9172030  76.0676110  49.8730280  18.7954690
  75.0763070  51.6635950  26.1702490  75.3735400  52.5698780  26.0894510
  75.6248630  51.1754730  25.5562060  72.8301390  56.2422190  22.0394140
  72.6042310  56.0259360  22.9440760  72.0493920  56.6750650  21.6940110
  75.2700600  57.1407770  32.7054410  75.1744200  56.2002500  32.5554810
  76.1132580  57.3622840  32.3102480  70.4011140  53.5521440  30.8588190
  70.0074530  54.3996650  31.0660970  69.7129540  52.9147810  31.0496830
  67.7028190  51.4749900  24.8918270  67.4141240  52.0452760  25.6043250
  68.4473950  50.9954350  25.2549500  67.8898420  55.4170020  16.1020990
  67.8073090  56.3600780  16.2435980  67.5381480  55.2744930  15.2233340
  75.6896550  54.1509050  25.1691340  75.6932610  53.7099000  24.3195880
  76.5847670  54.4726380  25.2763160  71.5398930  54.0335540  24.1285550
  71.1998980  54.5110770  24.8852600  70.7776250  53.5800660  23.7686650
  75.7516700  55.1521130  18.1598100  75.8729520  55.1107610  19.1083920
  75.3665210  56.0145280  18.0044830  74.7638200  57.4622270  17.5581400
  74.1955100  57.0140520  16.9317310  75.4727200  57.8215050  17.0246550
  69.8407380  61.3634290  31.4348130  69.4562170  60.7227960  32.0331090
  70.1519570  62.0670410  32.0042860  75.9904520  58.2110830  26.9156750
  76.3574650  57.7369400  27.6618090  75.8009580  59.0852400  27.2565090
  68.8545010  52.9554520  23.0450220  68.5691930  52.5910190  23.8828840
  68.7923870  52.2234980  22.4313360  73.7803890  57.2519470  29.2340960
  73.4760960  58.1311450  29.4591320  74.7350350  57.3119260  29.2698400
  72.3085680  61.4580460  19.8307810  71.5347940  60.9178080  19.6706530
  73.0380310  60.9387070  19.4925570  72.3523080  61.1260840  23.4686620
  72.8701750  60.3229100  23.4143510  71.9007100  61.0639980  24.3103450
  69.8367620  58.0922210  30.3812320  69.4782560  58.7576060  30.9685660
  69.5422180  57.2605760  30.7524940  73.0380740  58.5506450  33.2651870
  72.7380880  58.6963630  32.3679690  73.8091980  57.9911740  33.1725260
  76.2083270  62.4740650  21.5129840  76.8954400  63.0209860  21.8937430
  75.4215690  63.0181380  21.5479450  68.3475670  58.0913470  17.0046920
  69.2170520  58.3738270  17.2882840  67.8565990  58.9049340  16.8895730
  75.5110480  59.4786680  21.1255200  75.9673260  60.2891930  21.3515390
  75.1598690  59.1609820  21.9573690  71.4122260  49.8224330  21.5977720
  71.2836890  49.8142230  22.5462640  70.5884280  50.1607420  21.2468730
  68.7146920  67.3040850  17.5708550  69.0744560  67.9030190  16.9165820
  68.5739260  67.8500740  18.3443580  68.4116190  51.5815450  31.0584420
  67.6974710  51.7812370  31.6637030  68.8311230  50.8055020  31.4299220
  68.6988780  65.5695710  32.0450950  68.8079900  64.6290450  31.9046340
  68.0469340  65.8350460  31.3964680  76.6901370  63.8411600  33.4449070
  76.3698240  63.1220840  33.9894760  76.0159730  64.5166670  33.5185130
  74.7315540  64.6872050  18.3882220  74.7225640  65.4201740  17.7726730
  73.8113900  64.4403630  18.4809180  70.3322180  59.9086940  19.1328980
  69.7250130  60.6485840  19.1424280  70.8071530  59.9986300  18.3067180
  75.2401030  55.3080650  21.0331310  74.5317180  55.7766990  21.4744920
  75.5245510  54.6502660  21.6676500  76.3593250  67.2686610  21.7455080
  76.6134750  67.2308000  20.8234450  75.4105730  67.1419940  21.7383330
  73.4436050  53.6165730  18.4082020  74.2926580  54.0535880  18.3422210
  73.0767320  53.9285990  19.2354080  72.3427470  59.8698090  16.8817550
  73.1090740  59.7579450  17.4442980  72.4202160  59.1736060  16.2294320
  71.0374230  57.3023160  17.5650440  71.1177820  56.3550670  17.6767840
  71.9293980  57.6330040  17.6711100  71.8388940  67.4518550  24.6684980
  72.5751420  66.9034010  24.9393550  72.2229860  68.3174560  24.5290970
  68.7234420  63.5192120  20.5426490  67.7974200  63.7613260  20.5331900
  69.1890850  64.3466380  20.4211240  70.8447220  66.6364620  33.8570560
  71.6459950  66.9576670  34.2705960  70.3299040  66.2760200  34.5790470
  74.9491250  66.6248860  16.4910550  75.7419860  66.9137690  16.0392340
  74.4295600  66.1941030  15.8123030  68.5645030  59.1238080  32.8006610
  69.0684050  58.5445360  33.3722840  67.8252450  59.4078310  33.3382980
  75.4668650  61.8452270  16.3552900  75.3619290  61.2304620  17.0814280
  75.2992870  61.3218160  15.5715910  75.6182970  60.5309070  32.3342130
  74.8528640  61.0994070  32.2496800  75.7998930  60.2385280  31.4410360
  70.5968110  57.2667670  33.6956680  70.6373450  56.9681540  34.6041910
  71.4513610  57.6675280  33.5364200  74.3746500  59.8663220  18.8560190
  74.7962920  59.7003090  19.6991580  74.4997340  59.0563450  18.3615330
  72.5373920  55.8459770  31.6631170  72.0070380  55.3550720  31.0354510
  73.2061990  56.2743970  31.1289100  73.0246220  52.8122140  31.7428460
  72.9303090  52.1942890  31.0179330  72.4443610  53.5388430  31.5158370
  75.7907660  51.3695380  28.7755850  75.3424960  51.3919640  27.9301400
  75.1572860  50.9714400  29.3726150  76.1967210  60.2649710  29.3968290
  76.6155320  61.1082440  29.2244530  75.2775840  60.4021750  29.1675070
  73.2705400  55.9396450  15.8018350  73.0694460  55.0763810  16.1631690
  73.0997450  55.8529810  14.8639950  74.0474630  66.5702720  30.5126020
  73.5095720  67.2948780  30.1934720  74.3008590  66.0933060  29.7223360
  75.2999880  54.5387240  32.0381950  75.8899570  54.2303090  32.7259770
  74.4820120  54.0666990  32.1941850  72.0688200  53.0397070  15.7896230
  72.3714100  53.0464500  14.8815380  72.8082790  52.6894930  16.2863890
  76.9036840  67.8053930  30.7712670  76.8295540  68.7089070  31.0785040
  76.0015680  67.4865830  30.7434740  75.2873130  51.9831690  16.7752430
  74.9395130  51.3055680  16.1954880  75.4885900  51.5221200  17.5895820
  71.0918330  62.3439490  16.6226030  71.5293200  62.8869160  17.2783610
  71.5766060  61.5186440  16.6322370  68.3064130  65.1328520  24.0746290
  68.6367140  64.2649580  23.8424930  68.7355130  65.3387040  24.9051250
  72.9026050  63.4637530  21.7348260  72.6021590  63.3402500  22.6352170
  72.7963540  62.6046120  21.3263990  68.7954340  65.9999110  26.8127920
  68.3585330  66.1799910  27.6452070  69.3632020  66.7573730  26.6709640
  68.6278770  58.5119340  23.1716800  67.9727610  58.2430980  22.5276500
  69.4656720  58.4023820  22.7218780  69.6654700  58.8971910  27.7120140
  70.0327740  58.8099310  28.5916160  69.0965520  58.1338460  27.6127000
  69.2170700  55.8081000  31.6178560  68.3226750  55.7747760  31.9572270
  69.7568250  56.0067790  32.3829810  67.8416850  55.7218270  19.1142130
  66.9380930  55.9848470  18.9393790  68.3257470  55.9929440  18.3342090
  70.3844060  54.7783810  17.0236510  71.0935760  54.3567030  16.5383790
  69.6684000  54.8459040  16.3919860  70.0318220  50.8323140  16.0639160
  70.7546350  51.3732080  16.3820380  70.3042740  50.5586560  15.1880700
  69.7210410  50.0829330  25.9661780  70.3686600  49.5326710  25.5256940
  70.1412250  50.3372480  26.7877590  69.4742410  50.2385000  28.7087100
  69.1257230  50.6948820  29.4745280  69.1430110  49.3442130  28.7909530
  71.0806780  63.4104600  32.8740290  71.0376410  63.0397510  33.7554750
  71.2117790  64.3482170  33.0142110  74.7812810  64.9664190  28.4750010
  74.5404170  65.2338750  27.5880530  75.7215450  65.1369920  28.5300870
  70.1463050  49.7661200  31.9837870  70.6946040  49.5849250  31.2203980
  70.2118360  48.9755310  32.5194180  70.9194810  66.3566850  29.9938070
  70.3255130  66.2251550  30.7328110  70.9118650  65.5204990  29.5280170
  70.5507040  63.7225230  28.9446110  69.8241100  63.1030520  28.8772060
  70.6116190  64.1165840  28.0744190  74.1552140  65.9370230  25.7295520
  74.6717160  65.3257590  25.2043780  74.8049520  66.4399010  26.2206530
  68.8337040  67.0399620  22.1542870  68.6659080  66.4070300  22.8524760
  67.9671550  67.2459020  21.8037060  69.4565060  50.8716400  19.6574730
  70.2144420  50.9845280  19.0838760  68.9942230  51.7085600  19.6118160
  75.9978870  52.9855670  22.6477040  75.1853380  52.6112560  22.3072920
  76.5020510  52.2300750  22.9498230  70.4399740  65.7332850  19.5993010
  69.9147360  66.1140880  18.8954970  70.3644320  66.3583620  20.3202720
  71.8290210  51.3980450  18.1976700  72.3582970  50.6110250  18.0684650
  72.4618530  52.0771640  18.4312230  74.0228050  51.1355590  21.2522090
  73.3930790  50.4342900  21.4192220  73.4833190  51.8959720  21.0355250
  74.1483610  50.4139570  33.6874580  73.8667880  50.9173170  32.9235400
  74.5303310  49.6161320  33.3216710  73.0392710  67.6815230  18.4742260
  73.7711530  67.3974510  17.9266150  73.2986380  67.4428510  19.3641640
  72.2007500  63.7979960  18.4788590  71.5716380  64.2665060  19.0274420
  72.3155330  62.9529180  18.9134780  71.8041090  59.9384450   7.3874820
  70.9725970  59.6833160   7.7871330  72.4122070  60.0095220   8.1232740
  71.7842350  63.9724540   7.5832840  72.0870390  63.0822280   7.4043060
  72.5285940  64.5294760   7.3555090  68.1766050  57.4991990   7.0556910
  68.7482160  56.7314190   7.0560550  68.1767590  57.7980750   6.1463520
  69.4190920  52.9076350   8.8425840  69.2393760  52.0102100   9.1228600
  69.0171000  53.4548220   9.5172790  72.3894430  53.4817840   2.2055590
  72.4961180  54.3821570   2.5124350  71.4786790  53.4335810   1.9150240
  70.0377590  55.4036850   7.4508180  70.7187700  55.6675220   8.0695580
  69.7225640  54.5637720   7.7846190  74.2302160  56.4504210   6.5380770
  74.7380380  56.9485180   7.1785790  74.7615400  55.6739410   6.3620130
  72.5138260  51.0902770  10.8044190  72.5156700  51.6075160   9.9990090
  71.6842570  50.6132950  10.7814120  73.7641110  60.7297950   8.9817690
  73.4310490  61.3566870   9.6238760  73.9407790  61.2559830   8.2019360
  72.1953590  52.8012730   8.8114640  72.5370400  53.6454780   8.5168510
  71.2569400  52.9496470   8.9279980  72.9760210  62.6978750  10.7966870
  73.5934210  63.3729830  10.5151320  72.1153330  63.1066730  10.7054370
  75.8781480  50.2895000   5.1359230  76.1856460  49.7341890   4.4194730
  74.9482180  50.4239460   4.9532220  73.8718880  58.8808570   4.6539080
  73.4675880  58.1685820   4.1584980  73.9582000  58.5361810   5.5427120
  74.3400580  62.5676130   6.8178290  74.0428870  61.9621600   6.1386070
  75.2900400  62.6053440   6.7067650  72.5847500  55.6551780   8.4338120
  73.1362090  55.7647120   7.6591370  73.0991010  56.0289380   9.1493350
  73.4319010  62.3057820  13.4686090  72.5347540  62.5297790  13.7159490
  73.4571880  62.4292760  12.5197490  72.2590230  59.1771140  12.0443460
  72.1198000  60.0493940  12.4130860  71.3771590  58.8343950  11.8991400
  74.0570580  65.1192840  14.2528610  74.0286010  65.5235790  13.3857040
  73.8935550  64.1903200  14.0900210  70.5723510  57.7753550   2.1545730
  70.4521110  58.5015640   1.5427000  70.2624400  57.0056460   1.6773640
  68.2108880  60.9468690   7.9614370  68.2889300  61.0817460   7.0170090
  68.8250560  60.2384580   8.1542490  69.4556510  62.6468880   4.3720550
  69.0484590  62.7883470   3.5174150  70.3469520  62.3629040   4.1691760
  73.7278170  66.8614660   2.4843220  73.5520650  65.9450200   2.2711020
  72.8733910  67.2201950   2.7241020  68.2668400  61.9882860  10.5008830
  68.4299440  61.5188220   9.6828200  68.7320850  61.4806420  11.1657670
  73.0387170  51.1188620   5.5369400  72.5955320  51.8998160   5.2053920
  73.5972160  51.4418510   6.2440340  75.0763070  51.6635950   7.3959000
  75.3735400  52.5698780   7.3151020  75.6248630  51.1754730   6.7818570
  72.8301390  56.2422190   3.2650650  72.6042310  56.0259360   4.1697270
  72.0493920  56.6750650   2.9196620  75.2700600  57.1407770  13.9310920
  75.1744200  56.2002500  13.7811320  76.1132580  57.3622840  13.5358990
  70.4011140  53.5521440  12.0844700  70.0074530  54.3996650  12.2917480
  69.7129540  52.9147810  12.2753340  67.7028190  51.4749900   6.1174780
  67.4141240  52.0452760   6.8299760  68.4473950  50.9954350   6.4806010
  75.6896550  54.1509050   6.3947850  75.6932610  53.7099000   5.5452390
  76.5847670  54.4726380   6.5019670  71.5398930  54.0335540   5.3542060
  71.1998980  54.5110770   6.1109110  70.7776250  53.5800660   4.9943160
  69.8407380  61.3634290  12.6604640  69.4562170  60.7227960  13.2587600
  70.1519570  62.0670410  13.2299370  75.9904520  58.2110830   8.1413260
  76.3574650  57.7369400   8.8874600  75.8009580  59.0852400   8.4821600
  68.8545010  52.9554520   4.2706730  68.5691930  52.5910190   5.1085350
  68.7923870  52.2234980   3.6569870  73.7803890  57.2519470  10.4597470
  73.4760960  58.1311450  10.6847830  74.7350350  57.3119260  10.4954910
  72.3523080  61.1260840   4.6943130  72.8701750  60.3229100   4.6400020
  71.9007100  61.0639980   5.5359960  69.8367620  58.0922210  11.6068830
  69.4782560  58.7576060  12.1942170  69.5422180  57.2605760  11.9781450
  73.0380740  58.5506450  14.4908380  72.7380880  58.6963630  13.5936200
  73.8091980  57.9911740  14.3981770  76.2083270  62.4740650   2.7386350
  76.8954400  63.0209860   3.1193940  75.4215690  63.0181380   2.7735960
  75.5110480  59.4786680   2.3511710  75.9673260  60.2891930   2.5771900
  75.1598690  59.1609820   3.1830200  71.4122260  49.8224330   2.8234230
  71.2836890  49.8142230   3.7719150  70.5884280  50.1607420   2.4725240
  68.4116190  51.5815450  12.2840930  67.6974710  51.7812370  12.8893540
  68.8311230  50.8055020  12.6555730  68.6988780  65.5695710  13.2707460
  68.8079900  64.6290450  13.1302850  68.0469340  65.8350460  12.6221190
  76.6901370  63.8411600  14.6705580  76.3698240  63.1220840  15.2151270
  76.0159730  64.5166670  14.7441640  75.2401030  55.3080650   2.2587820
  74.5317180  55.7766990   2.7001430  75.5245510  54.6502660   2.8933010
  76.3593250  67.2686610   2.9711590  76.6134750  67.2308000   2.0490960
  75.4105730  67.1419940   2.9639840  71.8388940  67.4518550   5.8941490
  72.5751420  66.9034010   6.1650060  72.2229860  68.3174560   5.7547480
  68.7234420  63.5192120   1.7683000  67.7974200  63.7613260   1.7588410
  69.1890850  64.3466380   1.6467750  70.8447220  66.6364620  15.0827070
  71.6459950  66.9576670  15.4962470  70.3299040  66.2760200  15.8046980
  68.5645030  59.1238080  14.0263120  69.0684050  58.5445360  14.5979350
  67.8252450  59.4078310  14.5639490  75.6182970  60.5309070  13.5598640
  74.8528640  61.0994070  13.4753310  75.7998930  60.2385280  12.6666870
  70.5968110  57.2667670  14.9213190  70.6373450  56.9681540  15.8298420
  71.4513610  57.6675280  14.7620710  72.5373920  55.8459770  12.8887680
  72.0070380  55.3550720  12.2611020  73.2061990  56.2743970  12.3545610
  73.0246220  52.8122140  12.9684970  72.9303090  52.1942890  12.2435840
  72.4443610  53.5388430  12.7414880  75.7907660  51.3695380  10.0012360
  75.3424960  51.3919640   9.1557910  75.1572860  50.9714400  10.5982660
  76.1967210  60.2649710  10.6224800  76.6155320  61.1082440  10.4501040
  75.2775840  60.4021750  10.3931580  74.0474630  66.5702720  11.7382530
  73.5095720  67.2948780  11.4191230  74.3008590  66.0933060  10.9479870
  75.2999880  54.5387240  13.2638460  75.8899570  54.2303090  13.9516280
  74.4820120  54.0666990  13.4198360  76.9036840  67.8053930  11.9969180
  76.8295540  68.7089070  12.3041550  76.0015680  67.4865830  11.9691250
  68.3064130  65.1328520   5.3002800  68.6367140  64.2649580   5.0681440
  68.7355130  65.3387040   6.1307760  72.9026050  63.4637530   2.9604770
  72.6021590  63.3402500   3.8608680  72.7963540  62.6046120   2.5520500
  68.7954340  65.9999110   8.0384430  68.3585330  66.1799910   8.8708580
  69.3632020  66.7573730   7.8966150  68.6278770  58.5119340   4.3973310
  67.9727610  58.2430980   3.7533010  69.4656720  58.4023820   3.9475290
  69.6654700  58.8971910   8.9376650  70.0327740  58.8099310   9.8172670
  69.0965520  58.1338460   8.8383510  69.2170700  55.8081000  12.8435070
  68.3226750  55.7747760  13.1828780  69.7568250  56.0067790  13.6086320
  69.7210410  50.0829330   7.1918290  70.3686600  49.5326710   6.7513450
  70.1412250  50.3372480   8.0134100  69.4742410  50.2385000   9.9343610
  69.1257230  50.6948820  10.7001790  69.1430110  49.3442130  10.0166040
  71.0806780  63.4104600  14.0996800  71.0376410  63.0397510  14.9811260
  71.2117790  64.3482170  14.2398620  74.7812810  64.9664190   9.7006520
  74.5404170  65.2338750   8.8137040  75.7215450  65.1369920   9.7557380
  70.1463050  49.7661200  13.2094380  70.6946040  49.5849250  12.4460490
  70.2118360  48.9755310  13.7450690  70.9194810  66.3566850  11.2194580
  70.3255130  66.2251550  11.9584620  70.9118650  65.5204990  10.7536680
  70.5507040  63.7225230  10.1702620  69.8241100  63.1030520  10.1028570
  70.6116190  64.1165840   9.3000700  74.1552140  65.9370230   6.9552030
  74.6717160  65.3257590   6.4300290  74.8049520  66.4399010   7.4463040
  68.8337040  67.0399620   3.3799380  68.6659080  66.4070300   4.0781270
  67.9671550  67.2459020   3.0293570  75.9978870  52.9855670   3.8733550
  75.1853380  52.6112560   3.5329430  76.5020510  52.2300750   4.1754740
  74.0228050  51.1355590   2.4778600  73.3930790  50.4342900   2.6448730
  73.4833190  51.8959720   2.2611760  74.1483610  50.4139570  14.9131090
  73.8667880  50.9173170  14.1491910  74.5303310  49.6161320  14.5473220
  71.8041090  41.1640960  82.4848780  70.9725970  40.9089670  82.8845290
  72.4122070  41.2351730  83.2206700  71.7842350  45.1981050  82.6806800
  72.0870390  44.3078790  82.5017020  72.5285940  45.7551270  82.4529050
  70.2133040  36.1242850  76.2691170  69.3249740  36.4658820  76.1671050
  70.4974230  35.9243170  75.3772000  68.1766050  38.7248500  82.1530870
  68.7482160  37.9570700  82.1534510  68.1767590  39.0237260  81.2437480
  69.4190920  34.1332860  83.9399800  69.2393760  33.2358610  84.2202560
  69.0171000  34.6804730  84.6146750  72.3894430  34.7074350  77.3029550
  72.4961180  35.6078080  77.6098310  71.4786790  34.6592320  77.0124200
  70.0377590  36.6293360  82.5482140  70.7187700  36.8931730  83.1669540
  69.7225640  35.7894230  82.8820150  74.2302160  37.6760720  81.6354730
  74.7380380  38.1741690  82.2759750  74.7615400  36.8995920  81.4594090
  72.5138260  32.3159280  85.9018150  72.5156700  32.8331670  85.0964050
  71.6842570  31.8389460  85.8788080  73.7641110  41.9554460  84.0791650
  73.4310490  42.5823380  84.7212720  73.9407790  42.4816340  83.2993320
  72.1953590  34.0269240  83.9088600  72.5370400  34.8711290  83.6142470
  71.2569400  34.1752980  84.0253940  72.9760210  43.9235260  85.8940830
  73.5934210  44.5986340  85.6125280  72.1153330  44.3323240  85.8028330
  68.2692550  43.1135120  74.7747680  67.8920530  43.6022220  74.0432580
  68.5265620  43.7860400  75.4054210  75.8781480  31.5151510  80.2333190
  76.1856460  30.9598400  79.5168690  74.9482180  31.6495970  80.0506180
  73.8718880  40.1065080  79.7513040  73.4675880  39.3942330  79.2558940
  73.9582000  39.7618320  80.6401080  74.3400580  43.7932640  81.9152250
  74.0428870  43.1878110  81.2360030  75.2900400  43.8309950  81.8041610
  72.5847500  36.8808290  83.5312080  73.1362090  36.9903630  82.7565330
  73.0991010  37.2545890  84.2467310  70.5723510  39.0010060  77.2519690
  70.4521110  39.7272150  76.6400960  70.2624400  38.2312970  76.7747600
  68.2108880  42.1725200  83.0588330  68.2889300  42.3073970  82.1144050
  68.8250560  41.4641090  83.2516450  69.4556510  43.8725390  79.4694510
  69.0484590  44.0139980  78.6148110  70.3469520  43.5885550  79.2665720
  73.7278170  48.0871170  77.5817180  73.5520650  47.1706710  77.3684980
  72.8733910  48.4458460  77.8214980  68.2668400  43.2139370  85.5982790
  68.4299440  42.7444730  84.7802160  68.7320850  42.7062930  86.2631630
  73.0387170  32.3445130  80.6343360  72.5955320  33.1254670  80.3027880
  73.5972160  32.6675020  81.3414300  76.1545990  31.9655830  75.5149190
  75.5300170  31.9615700  76.2402500  76.0676110  31.0986790  75.1185160
  75.0763070  32.8892460  82.4932960  75.3735400  33.7955290  82.4124980
  75.6248630  32.4011240  81.8792530  72.8301390  37.4678700  78.3624610
  72.6042310  37.2515870  79.2671230  72.0493920  37.9007160  78.0170580
  67.7028190  32.7006410  81.2148740  67.4141240  33.2709270  81.9273720
  68.4473950  32.2210860  81.5779970  67.8898420  36.6426530  72.4251460
  67.8073090  37.5857290  72.5666450  67.5381480  36.5001440  71.5463810
  75.6896550  35.3765560  81.4921810  75.6932610  34.9355510  80.6426350
  76.5847670  35.6982890  81.5993630  71.5398930  35.2592050  80.4516020
  71.1998980  35.7367280  81.2083070  70.7776250  34.8057170  80.0917120
  75.7516700  36.3777640  74.4828570  75.8729520  36.3364120  75.4314390
  75.3665210  37.2401790  74.3275300  74.7638200  38.6878780  73.8811870
  74.1955100  38.2397030  73.2547780  75.4727200  39.0471560  73.3477020
  75.9904520  39.4367340  83.2387220  76.3574650  38.9625910  83.9848560
  75.8009580  40.3108910  83.5795560  68.8545010  34.1811030  79.3680690
  68.5691930  33.8166700  80.2059310  68.7923870  33.4491490  78.7543830
  73.7803890  38.4775980  85.5571430  73.4760960  39.3567960  85.7821790
  74.7350350  38.5375770  85.5928870  72.3085680  42.6836970  76.1538280
  71.5347940  42.1434590  75.9937000  73.0380310  42.1643580  75.8156040
  72.3523080  42.3517350  79.7917090  72.8701750  41.5485610  79.7373980
  71.9007100  42.2896490  80.6333920  76.2083270  43.6997160  77.8360310
  76.8954400  44.2466370  78.2167900  75.4215690  44.2437890  77.8709920
  68.3475670  39.3169980  73.3277390  69.2170520  39.5994780  73.6113310
  67.8565990  40.1305850  73.2126200  75.5110480  40.7043190  77.4485670
  75.9673260  41.5148440  77.6745860  75.1598690  40.3866330  78.2804160
  71.4122260  31.0480840  77.9208190  71.2836890  31.0398740  78.8693110
  70.5884280  31.3863930  77.5699200  68.7146920  48.5297360  73.8939020
  69.0744560  49.1286700  73.2396290  68.5739260  49.0757250  74.6674050
  74.7315540  45.9128560  74.7112690  74.7225640  46.6458250  74.0957200
  73.8113900  45.6660140  74.8039650  70.3322180  41.1343450  75.4559450
  69.7250130  41.8742350  75.4654750  70.8071530  41.2242810  74.6297650
  75.2401030  36.5337160  77.3561780  74.5317180  37.0023500  77.7975390
  75.5245510  35.8759170  77.9906970  76.3593250  48.4943120  78.0685550
  76.6134750  48.4564510  77.1464920  75.4105730  48.3676450  78.0613800
  73.4436050  34.8422240  74.7312490  74.2926580  35.2792390  74.6652680
  73.0767320  35.1542500  75.5584550  72.3427470  41.0954600  73.2048020
  73.1090740  40.9835960  73.7673450  72.4202160  40.3992570  72.5524790
  71.0374230  38.5279670  73.8880910  71.1177820  37.5807180  73.9998310
  71.9293980  38.8586550  73.9941570  71.8388940  48.6775060  80.9915450
  72.5751420  48.1290520  81.2624020  72.2229860  49.5431070  80.8521440
  68.7234420  44.7448630  76.8656960  67.7974200  44.9869770  76.8562370
  69.1890850  45.5722890  76.7441710  74.9491250  47.8505370  72.8141020
  75.7419860  48.1394200  72.3622810  74.4295600  47.4197540  72.1353500
  75.4668650  43.0708780  72.6783370  75.3619290  42.4561130  73.4044750
  75.2992870  42.5474670  71.8946380  74.3746500  41.0919730  75.1790660
  74.7962920  40.9259600  76.0222050  74.4997340  40.2819960  74.6845800
  75.7907660  32.5951890  85.0986320  75.3424960  32.6176150  84.2531870
  75.1572860  32.1970910  85.6956620  76.1967210  41.4906220  85.7198760
  76.6155320  42.3338950  85.5475000  75.2775840  41.6278260  85.4905540
  73.2705400  37.1652960  72.1248820  73.0694460  36.3020320  72.4862160
  73.0997450  37.0786320  71.1870420  72.0688200  34.2653580  72.1126700
  72.3714100  34.2721010  71.2045850  72.8082790  33.9151440  72.6094360
  75.2873130  33.2088200  73.0982900  74.9395130  32.5312190  72.5185350
  75.4885900  32.7477710  73.9126290  71.0918330  43.5696000  72.9456500
  71.5293200  44.1125670  73.6014080  71.5766060  42.7442950  72.9552840
  68.3064130  46.3585030  80.3976760  68.6367140  45.4906090  80.1655400
  68.7355130  46.5643550  81.2281720  72.9026050  44.6894040  78.0578730
  72.6021590  44.5659010  78.9582640  72.7963540  43.8302630  77.6494460
  68.7954340  47.2255620  83.1358390  68.3585330  47.4056420  83.9682540
  69.3632020  47.9830240  82.9940110  68.6278770  39.7375850  79.4947270
  67.9727610  39.4687490  78.8506970  69.4656720  39.6280330  79.0449250
  69.6654700  40.1228420  84.0350610  70.0327740  40.0355820  84.9146630
  69.0965520  39.3594970  83.9357470  67.8416850  36.9474780  75.4372600
  66.9380930  37.2104980  75.2624260  68.3257470  37.2185950  74.6572560
  70.3844060  36.0040320  73.3466980  71.0935760  35.5823540  72.8614260
  69.6684000  36.0715550  72.7150330  70.0318220  32.0579650  72.3869630
  70.7546350  32.5988590  72.7050850  70.3042740  31.7843070  71.5111170
  69.7210410  31.3085840  82.2892250  70.3686600  30.7583220  81.8487410
  70.1412250  31.5628990  83.1108060  69.4742410  31.4641510  85.0317570
  69.1257230  31.9205330  85.7975750  69.1430110  30.5698640  85.1140000
  74.7812810  46.1920700  84.7980480  74.5404170  46.4595260  83.9111000
  75.7215450  46.3626430  84.8531340  70.5507040  44.9481740  85.2676580
  69.8241100  44.3287030  85.2002530  70.6116190  45.3422350  84.3974660
  74.1552140  47.1626740  82.0525990  74.6717160  46.5514100  81.5274250
  74.8049520  47.6655520  82.5437000  68.8337040  48.2656130  78.4773340
  68.6659080  47.6326810  79.1755230  67.9671550  48.4715530  78.1267530
  69.4565060  32.0972910  75.9805200  70.2144420  32.2101790  75.4069230
  68.9942230  32.9342110  75.9348630  75.9978870  34.2112180  78.9707510
  75.1853380  33.8369070  78.6303390  76.5020510  33.4557260  79.2728700
  70.4399740  46.9589360  75.9223480  69.9147360  47.3397390  75.2185440
  70.3644320  47.5840130  76.6433190  71.8290210  32.6236960  74.5207170
  72.3582970  31.8366760  74.3915120  72.4618530  33.3028150  74.7542700
  74.0228050  32.3612100  77.5752560  73.3930790  31.6599410  77.7422690
  73.4833190  33.1216230  77.3585720  73.0392710  48.9071740  74.7972730
  73.7711530  48.6231020  74.2496620  73.2986380  48.6685020  75.6872110
  72.2007500  45.0236470  74.8019060  71.5716380  45.4921570  75.3504890
  72.3155330  44.1785690  75.2365250  71.8041090  41.1640960  63.7105290
  70.9725970  40.9089670  64.1101800  72.4122070  41.2351730  64.4463210
  71.7842350  45.1981050  63.9063310  72.0870390  44.3078790  63.7273530
  72.5285940  45.7551270  63.6785560  70.2133040  36.1242850  57.4947680
  69.3249740  36.4658820  57.3927560  70.4974230  35.9243170  56.6028510
  68.1766050  38.7248500  63.3787380  68.7482160  37.9570700  63.3791020
  68.1767590  39.0237260  62.4693990  69.4190920  34.1332860  65.1656310
  69.2393760  33.2358610  65.4459070  69.0171000  34.6804730  65.8403260
  72.3894430  34.7074350  58.5286060  72.4961180  35.6078080  58.8354820
  71.4786790  34.6592320  58.2380710  70.0377590  36.6293360  63.7738650
  70.7187700  36.8931730  64.3926050  69.7225640  35.7894230  64.1076660
  74.2302160  37.6760720  62.8611240  74.7380380  38.1741690  63.5016260
  74.7615400  36.8995920  62.6850600  72.5138260  32.3159280  67.1274660
  72.5156700  32.8331670  66.3220560  71.6842570  31.8389460  67.1044590
  73.7641110  41.9554460  65.3048160  73.4310490  42.5823380  65.9469230
  73.9407790  42.4816340  64.5249830  72.1953590  34.0269240  65.1345110
  72.5370400  34.8711290  64.8398980  71.2569400  34.1752980  65.2510450
  72.9760210  43.9235260  67.1197340  73.5934210  44.5986340  66.8381790
  72.1153330  44.3323240  67.0284840  68.2692550  43.1135120  56.0004190
  67.8920530  43.6022220  55.2689090  68.5265620  43.7860400  56.6310720
  75.8781480  31.5151510  61.4589700  76.1856460  30.9598400  60.7425200
  74.9482180  31.6495970  61.2762690  73.8718880  40.1065080  60.9769550
  73.4675880  39.3942330  60.4815450  73.9582000  39.7618320  61.8657590
  74.3400580  43.7932640  63.1408760  74.0428870  43.1878110  62.4616540
  75.2900400  43.8309950  63.0298120  72.5847500  36.8808290  64.7568590
  73.1362090  36.9903630  63.9821840  73.0991010  37.2545890  65.4723820
  73.4319010  43.5314330  69.7916560  72.5347540  43.7554300  70.0389960
  73.4571880  43.6549270  68.8427960  72.2590230  40.4027650  68.3673930
  72.1198000  41.2750450  68.7361330  71.3771590  40.0600460  68.2221870
  74.0570580  46.3449350  70.5759080  74.0286010  46.7492300  69.7087510
  73.8935550  45.4159710  70.4130680  70.5723510  39.0010060  58.4776200
  70.4521110  39.7272150  57.8657470  70.2624400  38.2312970  58.0004110
  68.2108880  42.1725200  64.2844840  68.2889300  42.3073970  63.3400560
  68.8250560  41.4641090  64.4772960  69.4556510  43.8725390  60.6951020
  69.0484590  44.0139980  59.8404620  70.3469520  43.5885550  60.4922230
  73.7278170  48.0871170  58.8073690  73.5520650  47.1706710  58.5941490
  72.8733910  48.4458460  59.0471490  68.2668400  43.2139370  66.8239300
  68.4299440  42.7444730  66.0058670  68.7320850  42.7062930  67.4888140
  73.0387170  32.3445130  61.8599870  72.5955320  33.1254670  61.5284390
  73.5972160  32.6675020  62.5670810  76.1545990  31.9655830  56.7405700
  75.5300170  31.9615700  57.4659010  76.0676110  31.0986790  56.3441670
  75.0763070  32.8892460  63.7189470  75.3735400  33.7955290  63.6381490
  75.6248630  32.4011240  63.1049040  72.8301390  37.4678700  59.5881120
  72.6042310  37.2515870  60.4927740  72.0493920  37.9007160  59.2427090
  75.2700600  38.3664280  70.2541390  75.1744200  37.4259010  70.1041790
  76.1132580  38.5879350  69.8589460  70.4011140  34.7777950  68.4075170
  70.0074530  35.6253160  68.6147950  69.7129540  34.1404320  68.5983810
  67.7028190  32.7006410  62.4405250  67.4141240  33.2709270  63.1530230
  68.4473950  32.2210860  62.8036480  67.8898420  36.6426530  53.6507970
  67.8073090  37.5857290  53.7922960  67.5381480  36.5001440  52.7720320
  75.6896550  35.3765560  62.7178320  75.6932610  34.9355510  61.8682860
  76.5847670  35.6982890  62.8250140  71.5398930  35.2592050  61.6772530
  71.1998980  35.7367280  62.4339580  70.7776250  34.8057170  61.3173630
  75.7516700  36.3777640  55.7085080  75.8729520  36.3364120  56.6570900
  75.3665210  37.2401790  55.5531810  74.7638200  38.6878780  55.1068380
  74.1955100  38.2397030  54.4804290  75.4727200  39.0471560  54.5733530
  69.8407380  42.5890800  68.9835110  69.4562170  41.9484470  69.5818070
  70.1519570  43.2926920  69.5529840  75.9904520  39.4367340  64.4643730
  76.3574650  38.9625910  65.2105070  75.8009580  40.3108910  64.8052070
  68.8545010  34.1811030  60.5937200  68.5691930  33.8166700  61.4315820
  68.7923870  33.4491490  59.9800340  73.7803890  38.4775980  66.7827940
  73.4760960  39.3567960  67.0078300  74.7350350  38.5375770  66.8185380
  72.3085680  42.6836970  57.3794790  71.5347940  42.1434590  57.2193510
  73.0380310  42.1643580  57.0412550  72.3523080  42.3517350  61.0173600
  72.8701750  41.5485610  60.9630490  71.9007100  42.2896490  61.8590430
  69.8367620  39.3178720  67.9299300  69.4782560  39.9832570  68.5172640
  69.5422180  38.4862270  68.3011920  73.0380740  39.7762960  70.8138850
  72.7380880  39.9220140  69.9166670  73.8091980  39.2168250  70.7212240
  76.2083270  43.6997160  59.0616820  76.8954400  44.2466370  59.4424410
  75.4215690  44.2437890  59.0966430  68.3475670  39.3169980  54.5533900
  69.2170520  39.5994780  54.8369820  67.8565990  40.1305850  54.4382710
  75.5110480  40.7043190  58.6742180  75.9673260  41.5148440  58.9002370
  75.1598690  40.3866330  59.5060670  71.4122260  31.0480840  59.1464700
  71.2836890  31.0398740  60.0949620  70.5884280  31.3863930  58.7955710
  68.7146920  48.5297360  55.1195530  69.0744560  49.1286700  54.4652800
  68.5739260  49.0757250  55.8930560  68.4116190  32.8071960  68.6071400
  67.6974710  33.0068880  69.2124010  68.8311230  32.0311530  68.9786200
  68.6988780  46.7952220  69.5937930  68.8079900  45.8546960  69.4533320
  68.0469340  47.0606970  68.9451660  76.6901370  45.0668110  70.9936050
  76.3698240  44.3477350  71.5381740  76.0159730  45.7423180  71.0672110
  74.7315540  45.9128560  55.9369200  74.7225640  46.6458250  55.3213710
  73.8113900  45.6660140  56.0296160  70.3322180  41.1343450  56.6815960
  69.7250130  41.8742350  56.6911260  70.8071530  41.2242810  55.8554160
  75.2401030  36.5337160  58.5818290  74.5317180  37.0023500  59.0231900
  75.5245510  35.8759170  59.2163480  76.3593250  48.4943120  59.2942060
  76.6134750  48.4564510  58.3721430  75.4105730  48.3676450  59.2870310
  73.4436050  34.8422240  55.9569000  74.2926580  35.2792390  55.8909190
  73.0767320  35.1542500  56.7841060  72.3427470  41.0954600  54.4304530
  73.1090740  40.9835960  54.9929960  72.4202160  40.3992570  53.7781300
  71.0374230  38.5279670  55.1137420  71.1177820  37.5807180  55.2254820
  71.9293980  38.8586550  55.2198080  71.8388940  48.6775060  62.2171960
  72.5751420  48.1290520  62.4880530  72.2229860  49.5431070  62.0777950
  68.7234420  44.7448630  58.0913470  67.7974200  44.9869770  58.0818880
  69.1890850  45.5722890  57.9698220  70.8447220  47.8621130  71.4057540
  71.6459950  48.1833180  71.8192940  70.3299040  47.5016710  72.1277450
  74.9491250  47.8505370  54.0397530  75.7419860  48.1394200  53.5879320
  74.4295600  47.4197540  53.3610010  68.5645030  40.3494590  70.3493590
  69.0684050  39.7701870  70.9209820  67.8252450  40.6334820  70.8869960
  75.4668650  43.0708780  53.9039880  75.3619290  42.4561130  54.6301260
  75.2992870  42.5474670  53.1202890  75.6182970  41.7565580  69.8829110
  74.8528640  42.3250580  69.7983780  75.7998930  41.4641790  68.9897340
  70.5968110  38.4924180  71.2443660  70.6373450  38.1938050  72.1528890
  71.4513610  38.8931790  71.0851180  74.3746500  41.0919730  56.4047170
  74.7962920  40.9259600  57.2478560  74.4997340  40.2819960  55.9102310
  72.5373920  37.0716280  69.2118150  72.0070380  36.5807230  68.5841490
  73.2061990  37.5000480  68.6776080  73.0246220  34.0378650  69.2915440
  72.9303090  33.4199400  68.5666310  72.4443610  34.7644940  69.0645350
  75.7907660  32.5951890  66.3242830  75.3424960  32.6176150  65.4788380
  75.1572860  32.1970910  66.9213130  76.1967210  41.4906220  66.9455270
  76.6155320  42.3338950  66.7731510  75.2775840  41.6278260  66.7162050
  73.2705400  37.1652960  53.3505330  73.0694460  36.3020320  53.7118670
  73.0997450  37.0786320  52.4126930  74.0474630  47.7959230  68.0613000
  73.5095720  48.5205290  67.7421700  74.3008590  47.3189570  67.2710340
  75.2999880  35.7643750  69.5868930  75.8899570  35.4559600  70.2746750
  74.4820120  35.2923500  69.7428830  72.0688200  34.2653580  53.3383210
  72.3714100  34.2721010  52.4302360  72.8082790  33.9151440  53.8350870
  76.9036840  49.0310440  68.3199650  76.8295540  49.9345580  68.6272020
  76.0015680  48.7122340  68.2921720  75.2873130  33.2088200  54.3239410
  74.9395130  32.5312190  53.7441860  75.4885900  32.7477710  55.1382800
  71.0918330  43.5696000  54.1713010  71.5293200  44.1125670  54.8270590
  71.5766060  42.7442950  54.1809350  68.3064130  46.3585030  61.6233270
  68.6367140  45.4906090  61.3911910  68.7355130  46.5643550  62.4538230
  72.9026050  44.6894040  59.2835240  72.6021590  44.5659010  60.1839150
  72.7963540  43.8302630  58.8750970  68.7954340  47.2255620  64.3614900
  68.3585330  47.4056420  65.1939050  69.3632020  47.9830240  64.2196620
  68.6278770  39.7375850  60.7203780  67.9727610  39.4687490  60.0763480
  69.4656720  39.6280330  60.2705760  69.6654700  40.1228420  65.2607120
  70.0327740  40.0355820  66.1403140  69.0965520  39.3594970  65.1613980
  69.2170700  37.0337510  69.1665540  68.3226750  37.0004270  69.5059250
  69.7568250  37.2324300  69.9316790  67.8416850  36.9474780  56.6629110
  66.9380930  37.2104980  56.4880770  68.3257470  37.2185950  55.8829070
  70.3844060  36.0040320  54.5723490  71.0935760  35.5823540  54.0870770
  69.6684000  36.0715550  53.9406840  70.0318220  32.0579650  53.6126140
  70.7546350  32.5988590  53.9307360  70.3042740  31.7843070  52.7367680
  69.7210410  31.3085840  63.5148760  70.3686600  30.7583220  63.0743920
  70.1412250  31.5628990  64.3364570  69.4742410  31.4641510  66.2574080
  69.1257230  31.9205330  67.0232260  69.1430110  30.5698640  66.3396510
  71.0806780  44.6361110  70.4227270  71.0376410  44.2654020  71.3041730
  71.2117790  45.5738680  70.5629090  74.7812810  46.1920700  66.0236990
  74.5404170  46.4595260  65.1367510  75.7215450  46.3626430  66.0787850
  70.1463050  30.9917710  69.5324850  70.6946040  30.8105760  68.7690960
  70.2118360  30.2011820  70.0681160  70.9194810  47.5823360  67.5425050
  70.3255130  47.4508060  68.2815090  70.9118650  46.7461500  67.0767150
  70.5507040  44.9481740  66.4933090  69.8241100  44.3287030  66.4259040
  70.6116190  45.3422350  65.6231170  74.1552140  47.1626740  63.2782500
  74.6717160  46.5514100  62.7530760  74.8049520  47.6655520  63.7693510
  68.8337040  48.2656130  59.7029850  68.6659080  47.6326810  60.4011740
  67.9671550  48.4715530  59.3524040  69.4565060  32.0972910  57.2061710
  70.2144420  32.2101790  56.6325740  68.9942230  32.9342110  57.1605140
  75.9978870  34.2112180  60.1964020  75.1853380  33.8369070  59.8559900
  76.5020510  33.4557260  60.4985210  70.4399740  46.9589360  57.1479990
  69.9147360  47.3397390  56.4441950  70.3644320  47.5840130  57.8689700
  71.8290210  32.6236960  55.7463680  72.3582970  31.8366760  55.6171630
  72.4618530  33.3028150  55.9799210  74.0228050  32.3612100  58.8009070
  73.3930790  31.6599410  58.9679200  73.4833190  33.1216230  58.5842230
  74.1483610  31.6396080  71.2361560  73.8667880  32.1429680  70.4722380
  74.5303310  30.8417830  70.8703690  73.0392710  48.9071740  56.0229240
  73.7711530  48.6231020  55.4753130  73.2986380  48.6685020  56.9128620
  72.2007500  45.0236470  56.0275570  71.5716380  45.4921570  56.5761400
  72.3155330  44.1785690  56.4621760  71.8041090  41.1640960  44.9361800
  70.9725970  40.9089670  45.3358310  72.4122070  41.2351730  45.6719720
  71.7842350  45.1981050  45.1319820  72.0870390  44.3078790  44.9530040
  72.5285940  45.7551270  44.9042070  70.2133040  36.1242850  38.7204190
  69.3249740  36.4658820  38.6184070  70.4974230  35.9243170  37.8285020
  68.1766050  38.7248500  44.6043890  68.7482160  37.9570700  44.6047530
  68.1767590  39.0237260  43.6950500  69.4190920  34.1332860  46.3912820
  69.2393760  33.2358610  46.6715580  69.0171000  34.6804730  47.0659770
  72.3894430  34.7074350  39.7542570  72.4961180  35.6078080  40.0611330
  71.4786790  34.6592320  39.4637220  70.0377590  36.6293360  44.9995160
  70.7187700  36.8931730  45.6182560  69.7225640  35.7894230  45.3333170
  74.2302160  37.6760720  44.0867750  74.7380380  38.1741690  44.7272770
  74.7615400  36.8995920  43.9107110  72.5138260  32.3159280  48.3531170
  72.5156700  32.8331670  47.5477070  71.6842570  31.8389460  48.3301100
  73.7641110  41.9554460  46.5304670  73.4310490  42.5823380  47.1725740
  73.9407790  42.4816340  45.7506340  72.1953590  34.0269240  46.3601620
  72.5370400  34.8711290  46.0655490  71.2569400  34.1752980  46.4766960
  72.9760210  43.9235260  48.3453850  73.5934210  44.5986340  48.0638300
  72.1153330  44.3323240  48.2541350  68.2692550  43.1135120  37.2260700
  67.8920530  43.6022220  36.4945600  68.5265620  43.7860400  37.8567230
  75.8781480  31.5151510  42.6846210  76.1856460  30.9598400  41.9681710
  74.9482180  31.6495970  42.5019200  73.8718880  40.1065080  42.2026060
  73.4675880  39.3942330  41.7071960  73.9582000  39.7618320  43.0914100
  74.3400580  43.7932640  44.3665270  74.0428870  43.1878110  43.6873050
  75.2900400  43.8309950  44.2554630  72.5847500  36.8808290  45.9825100
  73.1362090  36.9903630  45.2078350  73.0991010  37.2545890  46.6980330
  73.4319010  43.5314330  51.0173070  72.5347540  43.7554300  51.2646470
  73.4571880  43.6549270  50.0684470  72.2590230  40.4027650  49.5930440
  72.1198000  41.2750450  49.9617840  71.3771590  40.0600460  49.4478380
  74.0570580  46.3449350  51.8015590  74.0286010  46.7492300  50.9344020
  73.8935550  45.4159710  51.6387190  70.5723510  39.0010060  39.7032710
  70.4521110  39.7272150  39.0913980  70.2624400  38.2312970  39.2260620
  68.2108880  42.1725200  45.5101350  68.2889300  42.3073970  44.5657070
  68.8250560  41.4641090  45.7029470  69.4556510  43.8725390  41.9207530
  69.0484590  44.0139980  41.0661130  70.3469520  43.5885550  41.7178740
  73.7278170  48.0871170  40.0330200  73.5520650  47.1706710  39.8198000
  72.8733910  48.4458460  40.2728000  68.2668400  43.2139370  48.0495810
  68.4299440  42.7444730  47.2315180  68.7320850  42.7062930  48.7144650
  73.0387170  32.3445130  43.0856380  72.5955320  33.1254670  42.7540900
  73.5972160  32.6675020  43.7927320  76.1545990  31.9655830  37.9662210
  75.5300170  31.9615700  38.6915520  76.0676110  31.0986790  37.5698180
  75.0763070  32.8892460  44.9445980  75.3735400  33.7955290  44.8638000
  75.6248630  32.4011240  44.3305550  72.8301390  37.4678700  40.8137630
  72.6042310  37.2515870  41.7184250  72.0493920  37.9007160  40.4683600
  75.2700600  38.3664280  51.4797900  75.1744200  37.4259010  51.3298300
  76.1132580  38.5879350  51.0845970  70.4011140  34.7777950  49.6331680
  70.0074530  35.6253160  49.8404460  69.7129540  34.1404320  49.8240320
  67.7028190  32.7006410  43.6661760  67.4141240  33.2709270  44.3786740
  68.4473950  32.2210860  44.0292990  67.8898420  36.6426530  34.8764480
  67.8073090  37.5857290  35.0179470  67.5381480  36.5001440  33.9976830
  75.6896550  35.3765560  43.9434830  75.6932610  34.9355510  43.0939370
  76.5847670  35.6982890  44.0506650  71.5398930  35.2592050  42.9029040
  71.1998980  35.7367280  43.6596090  70.7776250  34.8057170  42.5430140
  75.7516700  36.3777640  36.9341590  75.8729520  36.3364120  37.8827410
  75.3665210  37.2401790  36.7788320  74.7638200  38.6878780  36.3324890
  74.1955100  38.2397030  35.7060800  75.4727200  39.0471560  35.7990040
  69.8407380  42.5890800  50.2091620  69.4562170  41.9484470  50.8074580
  70.1519570  43.2926920  50.7786350  75.9904520  39.4367340  45.6900240
  76.3574650  38.9625910  46.4361580  75.8009580  40.3108910  46.0308580
  68.8545010  34.1811030  41.8193710  68.5691930  33.8166700  42.6572330
  68.7923870  33.4491490  41.2056850  73.7803890  38.4775980  48.0084450
  73.4760960  39.3567960  48.2334810  74.7350350  38.5375770  48.0441890
  72.3085680  42.6836970  38.6051300  71.5347940  42.1434590  38.4450020
  73.0380310  42.1643580  38.2669060  72.3523080  42.3517350  42.2430110
  72.8701750  41.5485610  42.1887000  71.9007100  42.2896490  43.0846940
  69.8367620  39.3178720  49.1555810  69.4782560  39.9832570  49.7429150
  69.5422180  38.4862270  49.5268430  73.0380740  39.7762960  52.0395360
  72.7380880  39.9220140  51.1423180  73.8091980  39.2168250  51.9468750
  76.2083270  43.6997160  40.2873330  76.8954400  44.2466370  40.6680920
  75.4215690  44.2437890  40.3222940  68.3475670  39.3169980  35.7790410
  69.2170520  39.5994780  36.0626330  67.8565990  40.1305850  35.6639220
  75.5110480  40.7043190  39.8998690  75.9673260  41.5148440  40.1258880
  75.1598690  40.3866330  40.7317180  71.4122260  31.0480840  40.3721210
  71.2836890  31.0398740  41.3206130  70.5884280  31.3863930  40.0212220
  68.7146920  48.5297360  36.3452040  69.0744560  49.1286700  35.6909310
  68.5739260  49.0757250  37.1187070  68.4116190  32.8071960  49.8327910
  67.6974710  33.0068880  50.4380520  68.8311230  32.0311530  50.2042710
  68.6988780  46.7952220  50.8194440  68.8079900  45.8546960  50.6789830
  68.0469340  47.0606970  50.1708170  76.6901370  45.0668110  52.2192560
  76.3698240  44.3477350  52.7638250  76.0159730  45.7423180  52.2928620
  74.7315540  45.9128560  37.1625710  74.7225640  46.6458250  36.5470220
  73.8113900  45.6660140  37.2552670  70.3322180  41.1343450  37.9072470
  69.7250130  41.8742350  37.9167770  70.8071530  41.2242810  37.0810670
  75.2401030  36.5337160  39.8074800  74.5317180  37.0023500  40.2488410
  75.5245510  35.8759170  40.4419990  76.3593250  48.4943120  40.5198570
  76.6134750  48.4564510  39.5977940  75.4105730  48.3676450  40.5126820
  73.4436050  34.8422240  37.1825510  74.2926580  35.2792390  37.1165700
  73.0767320  35.1542500  38.0097570  72.3427470  41.0954600  35.6561040
  73.1090740  40.9835960  36.2186470  72.4202160  40.3992570  35.0037810
  71.0374230  38.5279670  36.3393930  71.1177820  37.5807180  36.4511330
  71.9293980  38.8586550  36.4454590  71.8388940  48.6775060  43.4428470
  72.5751420  48.1290520  43.7137040  72.2229860  49.5431070  43.3034460
  68.7234420  44.7448630  39.3169980  67.7974200  44.9869770  39.3075390
  69.1890850  45.5722890  39.1954730  70.8447220  47.8621130  52.6314050
  71.6459950  48.1833180  53.0449450  70.3299040  47.5016710  53.3533960
  74.9491250  47.8505370  35.2654040  75.7419860  48.1394200  34.8135830
  74.4295600  47.4197540  34.5866520  68.5645030  40.3494590  51.5750100
  69.0684050  39.7701870  52.1466330  67.8252450  40.6334820  52.1126470
  75.4668650  43.0708780  35.1296390  75.3619290  42.4561130  35.8557770
  75.2992870  42.5474670  34.3459400  75.6182970  41.7565580  51.1085620
  74.8528640  42.3250580  51.0240290  75.7998930  41.4641790  50.2153850
  70.5968110  38.4924180  52.4700170  70.6373450  38.1938050  53.3785400
  71.4513610  38.8931790  52.3107690  74.3746500  41.0919730  37.6303680
  74.7962920  40.9259600  38.4735070  74.4997340  40.2819960  37.1358820
  72.5373920  37.0716280  50.4374660  72.0070380  36.5807230  49.8098000
  73.2061990  37.5000480  49.9032590  73.0246220  34.0378650  50.5171950
  72.9303090  33.4199400  49.7922820  72.4443610  34.7644940  50.2901860
  75.7907660  32.5951890  47.5499340  75.3424960  32.6176150  46.7044890
  75.1572860  32.1970910  48.1469640  76.1967210  41.4906220  48.1711780
  76.6155320  42.3338950  47.9988020  75.2775840  41.6278260  47.9418560
  73.2705400  37.1652960  34.5761840  73.0694460  36.3020320  34.9375180
  73.0997450  37.0786320  33.6383440  74.0474630  47.7959230  49.2869510
  73.5095720  48.5205290  48.9678210  74.3008590  47.3189570  48.4966850
  75.2999880  35.7643750  50.8125440  75.8899570  35.4559600  51.5003260
  74.4820120  35.2923500  50.9685340  72.0688200  34.2653580  34.5639720
  72.3714100  34.2721010  33.6558870  72.8082790  33.9151440  35.0607380
  76.9036840  49.0310440  49.5456160  76.8295540  49.9345580  49.8528530
  76.0015680  48.7122340  49.5178230  75.2873130  33.2088200  35.5495920
  74.9395130  32.5312190  34.9698370  75.4885900  32.7477710  36.3639310
  71.0918330  43.5696000  35.3969520  71.5293200  44.1125670  36.0527100
  71.5766060  42.7442950  35.4065860  68.3064130  46.3585030  42.8489780
  68.6367140  45.4906090  42.6168420  68.7355130  46.5643550  43.6794740
  72.9026050  44.6894040  40.5091750  72.6021590  44.5659010  41.4095660
  72.7963540  43.8302630  40.1007480  68.7954340  47.2255620  45.5871410
  68.3585330  47.4056420  46.4195560  69.3632020  47.9830240  45.4453130
  68.6278770  39.7375850  41.9460290  67.9727610  39.4687490  41.3019990
  69.4656720  39.6280330  41.4962270  69.6654700  40.1228420  46.4863630
  70.0327740  40.0355820  47.3659650  69.0965520  39.3594970  46.3870490
  69.2170700  37.0337510  50.3922050  68.3226750  37.0004270  50.7315760
  69.7568250  37.2324300  51.1573300  67.8416850  36.9474780  37.8885620
  66.9380930  37.2104980  37.7137280  68.3257470  37.2185950  37.1085580
  70.3844060  36.0040320  35.7980000  71.0935760  35.5823540  35.3127280
  69.6684000  36.0715550  35.1663350  70.0318220  32.0579650  34.8382650
  70.7546350  32.5988590  35.1563870  70.3042740  31.7843070  33.9624190
  69.7210410  31.3085840  44.7405270  70.3686600  30.7583220  44.3000430
  70.1412250  31.5628990  45.5621080  69.4742410  31.4641510  47.4830590
  69.1257230  31.9205330  48.2488770  69.1430110  30.5698640  47.5653020
  71.0806780  44.6361110  51.6483780  71.0376410  44.2654020  52.5298240
  71.2117790  45.5738680  51.7885600  74.7812810  46.1920700  47.2493500
  74.5404170  46.4595260  46.3624020  75.7215450  46.3626430  47.3044360
  70.1463050  30.9917710  50.7581360  70.6946040  30.8105760  49.9947470
  70.2118360  30.2011820  51.2937670  70.9194810  47.5823360  48.7681560
  70.3255130  47.4508060  49.5071600  70.9118650  46.7461500  48.3023660
  70.5507040  44.9481740  47.7189600  69.8241100  44.3287030  47.6515550
  70.6116190  45.3422350  46.8487680  74.1552140  47.1626740  44.5039010
  74.6717160  46.5514100  43.9787270  74.8049520  47.6655520  44.9950020
  68.8337040  48.2656130  40.9286360  68.6659080  47.6326810  41.6268250
  67.9671550  48.4715530  40.5780550  69.4565060  32.0972910  38.4318220
  70.2144420  32.2101790  37.8582250  68.9942230  32.9342110  38.3861650
  75.9978870  34.2112180  41.4220530  75.1853380  33.8369070  41.0816410
  76.5020510  33.4557260  41.7241720  70.4399740  46.9589360  38.3736500
  69.9147360  47.3397390  37.6698460  70.3644320  47.5840130  39.0946210
  71.8290210  32.6236960  36.9720190  72.3582970  31.8366760  36.8428140
  72.4618530  33.3028150  37.2055720  74.0228050  32.3612100  40.0265580
  73.3930790  31.6599410  40.1935710  73.4833190  33.1216230  39.8098740
  74.1483610  31.6396080  52.4618070  73.8667880  32.1429680  51.6978890
  74.5303310  30.8417830  52.0960200  73.0392710  48.9071740  37.2485750
  73.7711530  48.6231020  36.7009640  73.2986380  48.6685020  38.1385130
  72.2007500  45.0236470  37.2532080  71.5716380  45.4921570  37.8017910
  72.3155330  44.1785690  37.6878270  71.8041090  41.1640960  26.1618310
  70.9725970  40.9089670  26.5614820  72.4122070  41.2351730  26.8976230
  71.7842350  45.1981050  26.3576330  72.0870390  44.3078790  26.1786550
  72.5285940  45.7551270  26.1298580  70.2133040  36.1242850  19.9460700
  69.3249740  36.4658820  19.8440580  70.4974230  35.9243170  19.0541530
  68.1766050  38.7248500  25.8300400  68.7482160  37.9570700  25.8304040
  68.1767590  39.0237260  24.9207010  69.4190920  34.1332860  27.6169330
  69.2393760  33.2358610  27.8972090  69.0171000  34.6804730  28.2916280
  72.3894430  34.7074350  20.9799080  72.4961180  35.6078080  21.2867840
  71.4786790  34.6592320  20.6893730  70.0377590  36.6293360  26.2251670
  70.7187700  36.8931730  26.8439070  69.7225640  35.7894230  26.5589680
  74.2302160  37.6760720  25.3124260  74.7380380  38.1741690  25.9529280
  74.7615400  36.8995920  25.1363620  72.5138260  32.3159280  29.5787680
  72.5156700  32.8331670  28.7733580  71.6842570  31.8389460  29.5557610
  73.7641110  41.9554460  27.7561180  73.4310490  42.5823380  28.3982250
  73.9407790  42.4816340  26.9762850  72.1953590  34.0269240  27.5858130
  72.5370400  34.8711290  27.2912000  71.2569400  34.1752980  27.7023470
  72.9760210  43.9235260  29.5710360  73.5934210  44.5986340  29.2894810
  72.1153330  44.3323240  29.4797860  68.2692550  43.1135120  18.4517210
  67.8920530  43.6022220  17.7202110  68.5265620  43.7860400  19.0823740
  75.8781480  31.5151510  23.9102720  76.1856460  30.9598400  23.1938220
  74.9482180  31.6495970  23.7275710  73.8718880  40.1065080  23.4282570
  73.4675880  39.3942330  22.9328470  73.9582000  39.7618320  24.3170610
  74.3400580  43.7932640  25.5921780  74.0428870  43.1878110  24.9129560
  75.2900400  43.8309950  25.4811140  72.5847500  36.8808290  27.2081610
  73.1362090  36.9903630  26.4334860  73.0991010  37.2545890  27.9236840
  73.4319010  43.5314330  32.2429580  72.5347540  43.7554300  32.4902980
  73.4571880  43.6549270  31.2940980  72.2590230  40.4027650  30.8186950
  72.1198000  41.2750450  31.1874350  71.3771590  40.0600460  30.6734890
  74.0570580  46.3449350  33.0272100  74.0286010  46.7492300  32.1600530
  73.8935550  45.4159710  32.8643700  70.5723510  39.0010060  20.9289220
  70.4521110  39.7272150  20.3170490  70.2624400  38.2312970  20.4517130
  68.2108880  42.1725200  26.7357860  68.2889300  42.3073970  25.7913580
  68.8250560  41.4641090  26.9285980  69.4556510  43.8725390  23.1464040
  69.0484590  44.0139980  22.2917640  70.3469520  43.5885550  22.9435250
  73.7278170  48.0871170  21.2586710  73.5520650  47.1706710  21.0454510
  72.8733910  48.4458460  21.4984510  68.2668400  43.2139370  29.2752320
  68.4299440  42.7444730  28.4571690  68.7320850  42.7062930  29.9401160
  73.0387170  32.3445130  24.3112890  72.5955320  33.1254670  23.9797410
  73.5972160  32.6675020  25.0183830  76.1545990  31.9655830  19.1918720
  75.5300170  31.9615700  19.9172030  76.0676110  31.0986790  18.7954690
  75.0763070  32.8892460  26.1702490  75.3735400  33.7955290  26.0894510
  75.6248630  32.4011240  25.5562060  72.8301390  37.4678700  22.0394140
  72.6042310  37.2515870  22.9440760  72.0493920  37.9007160  21.6940110
  75.2700600  38.3664280  32.7054410  75.1744200  37.4259010  32.5554810
  76.1132580  38.5879350  32.3102480  70.4011140  34.7777950  30.8588190
  70.0074530  35.6253160  31.0660970  69.7129540  34.1404320  31.0496830
  67.7028190  32.7006410  24.8918270  67.4141240  33.2709270  25.6043250
  68.4473950  32.2210860  25.2549500  67.8898420  36.6426530  16.1020990
  67.8073090  37.5857290  16.2435980  67.5381480  36.5001440  15.2233340
  75.6896550  35.3765560  25.1691340  75.6932610  34.9355510  24.3195880
  76.5847670  35.6982890  25.2763160  71.5398930  35.2592050  24.1285550
  71.1998980  35.7367280  24.8852600  70.7776250  34.8057170  23.7686650
  75.7516700  36.3777640  18.1598100  75.8729520  36.3364120  19.1083920
  75.3665210  37.2401790  18.0044830  74.7638200  38.6878780  17.5581400
  74.1955100  38.2397030  16.9317310  75.4727200  39.0471560  17.0246550
  69.8407380  42.5890800  31.4348130  69.4562170  41.9484470  32.0331090
  70.1519570  43.2926920  32.0042860  75.9904520  39.4367340  26.9156750
  76.3574650  38.9625910  27.6618090  75.8009580  40.3108910  27.2565090
  68.8545010  34.1811030  23.0450220  68.5691930  33.8166700  23.8828840
  68.7923870  33.4491490  22.4313360  73.7803890  38.4775980  29.2340960
  73.4760960  39.3567960  29.4591320  74.7350350  38.5375770  29.2698400
  72.3085680  42.6836970  19.8307810  71.5347940  42.1434590  19.6706530
  73.0380310  42.1643580  19.4925570  72.3523080  42.3517350  23.4686620
  72.8701750  41.5485610  23.4143510  71.9007100  42.2896490  24.3103450
  69.8367620  39.3178720  30.3812320  69.4782560  39.9832570  30.9685660
  69.5422180  38.4862270  30.7524940  73.0380740  39.7762960  33.2651870
  72.7380880  39.9220140  32.3679690  73.8091980  39.2168250  33.1725260
  76.2083270  43.6997160  21.5129840  76.8954400  44.2466370  21.8937430
  75.4215690  44.2437890  21.5479450  68.3475670  39.3169980  17.0046920
  69.2170520  39.5994780  17.2882840  67.8565990  40.1305850  16.8895730
  75.5110480  40.7043190  21.1255200  75.9673260  41.5148440  21.3515390
  75.1598690  40.3866330  21.9573690  71.4122260  31.0480840  21.5977720
  71.2836890  31.0398740  22.5462640  70.5884280  31.3863930  21.2468730
  68.7146920  48.5297360  17.5708550  69.0744560  49.1286700  16.9165820
  68.5739260  49.0757250  18.3443580  68.4116190  32.8071960  31.0584420
  67.6974710  33.0068880  31.6637030  68.8311230  32.0311530  31.4299220
  68.6988780  46.7952220  32.0450950  68.8079900  45.8546960  31.9046340
  68.0469340  47.0606970  31.3964680  76.6901370  45.0668110  33.4449070
  76.3698240  44.3477350  33.9894760  76.0159730  45.7423180  33.5185130
  74.7315540  45.9128560  18.3882220  74.7225640  46.6458250  17.7726730
  73.8113900  45.6660140  18.4809180  70.3322180  41.1343450  19.1328980
  69.7250130  41.8742350  19.1424280  70.8071530  41.2242810  18.3067180
  75.2401030  36.5337160  21.0331310  74.5317180  37.0023500  21.4744920
  75.5245510  35.8759170  21.6676500  76.3593250  48.4943120  21.7455080
  76.6134750  48.4564510  20.8234450  75.4105730  48.3676450  21.7383330
  73.4436050  34.8422240  18.4082020  74.2926580  35.2792390  18.3422210
  73.0767320  35.1542500  19.2354080  72.3427470  41.0954600  16.8817550
  73.1090740  40.9835960  17.4442980  72.4202160  40.3992570  16.2294320
  71.0374230  38.5279670  17.5650440  71.1177820  37.5807180  17.6767840
  71.9293980  38.8586550  17.6711100  71.8388940  48.6775060  24.6684980
  72.5751420  48.1290520  24.9393550  72.2229860  49.5431070  24.5290970
  68.7234420  44.7448630  20.5426490  67.7974200  44.9869770  20.5331900
  69.1890850  45.5722890  20.4211240  70.8447220  47.8621130  33.8570560
  71.6459950  48.1833180  34.2705960  70.3299040  47.5016710  34.5790470
  74.9491250  47.8505370  16.4910550  75.7419860  48.1394200  16.0392340
  74.4295600  47.4197540  15.8123030  68.5645030  40.3494590  32.8006610
  69.0684050  39.7701870  33.3722840  67.8252450  40.6334820  33.3382980
  75.4668650  43.0708780  16.3552900  75.3619290  42.4561130  17.0814280
  75.2992870  42.5474670  15.5715910  75.6182970  41.7565580  32.3342130
  74.8528640  42.3250580  32.2496800  75.7998930  41.4641790  31.4410360
  70.5968110  38.4924180  33.6956680  70.6373450  38.1938050  34.6041910
  71.4513610  38.8931790  33.5364200  74.3746500  41.0919730  18.8560190
  74.7962920  40.9259600  19.6991580  74.4997340  40.2819960  18.3615330
  72.5373920  37.0716280  31.6631170  72.0070380  36.5807230  31.0354510
  73.2061990  37.5000480  31.1289100  73.0246220  34.0378650  31.7428460
  72.9303090  33.4199400  31.0179330  72.4443610  34.7644940  31.5158370
  75.7907660  32.5951890  28.7755850  75.3424960  32.6176150  27.9301400
  75.1572860  32.1970910  29.3726150  76.1967210  41.4906220  29.3968290
  76.6155320  42.3338950  29.2244530  75.2775840  41.6278260  29.1675070
  73.2705400  37.1652960  15.8018350  73.0694460  36.3020320  16.1631690
  73.0997450  37.0786320  14.8639950  74.0474630  47.7959230  30.5126020
  73.5095720  48.5205290  30.1934720  74.3008590  47.3189570  29.7223360
  75.2999880  35.7643750  32.0381950  75.8899570  35.4559600  32.7259770
  74.4820120  35.2923500  32.1941850  72.0688200  34.2653580  15.7896230
  72.3714100  34.2721010  14.8815380  72.8082790  33.9151440  16.2863890
  76.9036840  49.0310440  30.7712670  76.8295540  49.9345580  31.0785040
  76.0015680  48.7122340  30.7434740  75.2873130  33.2088200  16.7752430
  74.9395130  32.5312190  16.1954880  75.4885900  32.7477710  17.5895820
  71.0918330  43.5696000  16.6226030  71.5293200  44.1125670  17.2783610
  71.5766060  42.7442950  16.6322370  68.3064130  46.3585030  24.0746290
  68.6367140  45.4906090  23.8424930  68.7355130  46.5643550  24.9051250
  72.9026050  44.6894040  21.7348260  72.6021590  44.5659010  22.6352170
  72.7963540  43.8302630  21.3263990  68.7954340  47.2255620  26.8127920
  68.3585330  47.4056420  27.6452070  69.3632020  47.9830240  26.6709640
  68.6278770  39.7375850  23.1716800  67.9727610  39.4687490  22.5276500
  69.4656720  39.6280330  22.7218780  69.6654700  40.1228420  27.7120140
  70.0327740  40.0355820  28.5916160  69.0965520  39.3594970  27.6127000
  69.2170700  37.0337510  31.6178560  68.3226750  37.0004270  31.9572270
  69.7568250  37.2324300  32.3829810  67.8416850  36.9474780  19.1142130
  66.9380930  37.2104980  18.9393790  68.3257470  37.2185950  18.3342090
  70.3844060  36.0040320  17.0236510  71.0935760  35.5823540  16.5383790
  69.6684000  36.0715550  16.3919860  70.0318220  32.0579650  16.0639160
  70.7546350  32.5988590  16.3820380  70.3042740  31.7843070  15.1880700
  69.7210410  31.3085840  25.9661780  70.3686600  30.7583220  25.5256940
  70.1412250  31.5628990  26.7877590  69.4742410  31.4641510  28.7087100
  69.1257230  31.9205330  29.4745280  69.1430110  30.5698640  28.7909530
  71.0806780  44.6361110  32.8740290  71.0376410  44.2654020  33.7554750
  71.2117790  45.5738680  33.0142110  74.7812810  46.1920700  28.4750010
  74.5404170  46.4595260  27.5880530  75.7215450  46.3626430  28.5300870
  70.1463050  30.9917710  31.9837870  70.6946040  30.8105760  31.2203980
  70.2118360  30.2011820  32.5194180  70.9194810  47.5823360  29.9938070
  70.3255130  47.4508060  30.7328110  70.9118650  46.7461500  29.5280170
  70.5507040  44.9481740  28.9446110  69.8241100  44.3287030  28.8772060
  70.6116190  45.3422350  28.0744190  74.1552140  47.1626740  25.7295520
  74.6717160  46.5514100  25.2043780  74.8049520  47.6655520  26.2206530
  68.8337040  48.2656130  22.1542870  68.6659080  47.6326810  22.8524760
  67.9671550  48.4715530  21.8037060  69.4565060  32.0972910  19.6574730
  70.2144420  32.2101790  19.0838760  68.9942230  32.9342110  19.6118160
  75.9978870  34.2112180  22.6477040  75.1853380  33.8369070  22.3072920
  76.5020510  33.4557260  22.9498230  70.4399740  46.9589360  19.5993010
  69.9147360  47.3397390  18.8954970  70.3644320  47.5840130  20.3202720
  71.8290210  32.6236960  18.1976700  72.3582970  31.8366760  18.0684650
  72.4618530  33.3028150  18.4312230  74.0228050  32.3612100  21.2522090
  73.3930790  31.6599410  21.4192220  73.4833190  33.1216230  21.0355250
  74.1483610  31.6396080  33.6874580  73.8667880  32.1429680  32.9235400
  74.5303310  30.8417830  33.3216710  73.0392710  48.9071740  18.4742260
  73.7711530  48.6231020  17.9266150  73.2986380  48.6685020  19.3641640
  72.2007500  45.0236470  18.4788590  71.5716380  45.4921570  19.0274420
  72.3155330  44.1785690  18.9134780  71.8041090  41.1640960   7.3874820
  70.9725970  40.9089670   7.7871330  72.4122070  41.2351730   8.1232740
  71.7842350  45.1981050   7.5832840  72.0870390  44.3078790   7.4043060
  72.5285940  45.7551270   7.3555090  68.1766050  38.7248500   7.0556910
  68.7482160  37.9570700   7.0560550  68.1767590  39.0237260   6.1463520
  69.4190920  34.1332860   8.8425840  69.2393760  33.2358610   9.1228600
  69.0171000  34.6804730   9.5172790  72.3894430  34.7074350   2.2055590
  72.4961180  35.6078080   2.5124350  71.4786790  34.6592320   1.9150240
  70.0377590  36.6293360   7.4508180  70.7187700  36.8931730   8.0695580
  69.7225640  35.7894230   7.7846190  74.2302160  37.6760720   6.5380770
  74.7380380  38.1741690   7.1785790  74.7615400  36.8995920   6.3620130
  72.5138260  32.3159280  10.8044190  72.5156700  32.8331670   9.9990090
  71.6842570  31.8389460  10.7814120  73.7641110  41.9554460   8.9817690
  73.4310490  42.5823380   9.6238760  73.9407790  42.4816340   8.2019360
  72.1953590  34.0269240   8.8114640  72.5370400  34.8711290   8.5168510
  71.2569400  34.1752980   8.9279980  72.9760210  43.9235260  10.7966870
  73.5934210  44.5986340  10.5151320  72.1153330  44.3323240  10.7054370
  75.8781480  31.5151510   5.1359230  76.1856460  30.9598400   4.4194730
  74.9482180  31.6495970   4.9532220  73.8718880  40.1065080   4.6539080
  73.4675880  39.3942330   4.1584980  73.9582000  39.7618320   5.5427120
  74.3400580  43.7932640   6.8178290  74.0428870  43.1878110   6.1386070
  75.2900400  43.8309950   6.7067650  72.5847500  36.8808290   8.4338120
  73.1362090  36.9903630   7.6591370  73.0991010  37.2545890   9.1493350
  73.4319010  43.5314330  13.4686090  72.5347540  43.7554300  13.7159490
  73.4571880  43.6549270  12.5197490  72.2590230  40.4027650  12.0443460
  72.1198000  41.2750450  12.4130860  71.3771590  40.0600460  11.8991400
  74.0570580  46.3449350  14.2528610  74.0286010  46.7492300  13.3857040
  73.8935550  45.4159710  14.0900210  70.5723510  39.0010060   2.1545730
  70.4521110  39.7272150   1.5427000  70.2624400  38.2312970   1.6773640
  68.2108880  42.1725200   7.9614370  68.2889300  42.3073970   7.0170090
  68.8250560  41.4641090   8.1542490  69.4556510  43.8725390   4.3720550
  69.0484590  44.0139980   3.5174150  70.3469520  43.5885550   4.1691760
  73.7278170  48.0871170   2.4843220  73.5520650  47.1706710   2.2711020
  72.8733910  48.4458460   2.7241020  68.2668400  43.2139370  10.5008830
  68.4299440  42.7444730   9.6828200  68.7320850  42.7062930  11.1657670
  73.0387170  32.3445130   5.5369400  72.5955320  33.1254670   5.2053920
  73.5972160  32.6675020   6.2440340  75.0763070  32.8892460   7.3959000
  75.3735400  33.7955290   7.3151020  75.6248630  32.4011240   6.7818570
  72.8301390  37.4678700   3.2650650  72.6042310  37.2515870   4.1697270
  72.0493920  37.9007160   2.9196620  75.2700600  38.3664280  13.9310920
  75.1744200  37.4259010  13.7811320  76.1132580  38.5879350  13.5358990
  70.4011140  34.7777950  12.0844700  70.0074530  35.6253160  12.2917480
  69.7129540  34.1404320  12.2753340  67.7028190  32.7006410   6.1174780
  67.4141240  33.2709270   6.8299760  68.4473950  32.2210860   6.4806010
  75.6896550  35.3765560   6.3947850  75.6932610  34.9355510   5.5452390
  76.5847670  35.6982890   6.5019670  71.5398930  35.2592050   5.3542060
  71.1998980  35.7367280   6.1109110  70.7776250  34.8057170   4.9943160
  69.8407380  42.5890800  12.6604640  69.4562170  41.9484470  13.2587600
  70.1519570  43.2926920  13.2299370  75.9904520  39.4367340   8.1413260
  76.3574650  38.9625910   8.8874600  75.8009580  40.3108910   8.4821600
  68.8545010  34.1811030   4.2706730  68.5691930  33.8166700   5.1085350
  68.7923870  33.4491490   3.6569870  73.7803890  38.4775980  10.4597470
  73.4760960  39.3567960  10.6847830  74.7350350  38.5375770  10.4954910
  72.3523080  42.3517350   4.6943130  72.8701750  41.5485610   4.6400020
  71.9007100  42.2896490   5.5359960  69.8367620  39.3178720  11.6068830
  69.4782560  39.9832570  12.1942170  69.5422180  38.4862270  11.9781450
  73.0380740  39.7762960  14.4908380  72.7380880  39.9220140  13.5936200
  73.8091980  39.2168250  14.3981770  76.2083270  43.6997160   2.7386350
  76.8954400  44.2466370   3.1193940  75.4215690  44.2437890   2.7735960
  75.5110480  40.7043190   2.3511710  75.9673260  41.5148440   2.5771900
  75.1598690  40.3866330   3.1830200  71.4122260  31.0480840   2.8234230
  71.2836890  31.0398740   3.7719150  70.5884280  31.3863930   2.4725240
  68.4116190  32.8071960  12.2840930  67.6974710  33.0068880  12.8893540
  68.8311230  32.0311530  12.6555730  68.6988780  46.7952220  13.2707460
  68.8079900  45.8546960  13.1302850  68.0469340  47.0606970  12.6221190
  76.6901370  45.0668110  14.6705580  76.3698240  44.3477350  15.2151270
  76.0159730  45.7423180  14.7441640  75.2401030  36.5337160   2.2587820
  74.5317180  37.0023500   2.7001430  75.5245510  35.8759170   2.8933010
  76.3593250  48.4943120   2.9711590  76.6134750  48.4564510   2.0490960
  75.4105730  48.3676450   2.9639840  71.8388940  48.6775060   5.8941490
  72.5751420  48.1290520   6.1650060  72.2229860  49.5431070   5.7547480
  68.7234420  44.7448630   1.7683000  67.7974200  44.9869770   1.7588410
  69.1890850  45.5722890   1.6467750  70.8447220  47.8621130  15.0827070
  71.6459950  48.1833180  15.4962470  70.3299040  47.5016710  15.8046980
  68.5645030  40.3494590  14.0263120  69.0684050  39.7701870  14.5979350
  67.8252450  40.6334820  14.5639490  75.6182970  41.7565580  13.5598640
  74.8528640  42.3250580  13.4753310  75.7998930  41.4641790  12.6666870
  70.5968110  38.4924180  14.9213190  70.6373450  38.1938050  15.8298420
  71.4513610  38.8931790  14.7620710  72.5373920  37.0716280  12.8887680
  72.0070380  36.5807230  12.2611020  73.2061990  37.5000480  12.3545610
  73.0246220  34.0378650  12.9684970  72.9303090  33.4199400  12.2435840
  72.4443610  34.7644940  12.7414880  75.7907660  32.5951890  10.0012360
  75.3424960  32.6176150   9.1557910  75.1572860  32.1970910  10.5982660
  76.1967210  41.4906220  10.6224800  76.6155320  42.3338950  10.4501040
  75.2775840  41.6278260  10.3931580  74.0474630  47.7959230  11.7382530
  73.5095720  48.5205290  11.4191230  74.3008590  47.3189570  10.9479870
  75.2999880  35.7643750  13.2638460  75.8899570  35.4559600  13.9516280
  74.4820120  35.2923500  13.4198360  76.9036840  49.0310440  11.9969180
  76.8295540  49.9345580  12.3041550  76.0015680  48.7122340  11.9691250
  68.3064130  46.3585030   5.3002800  68.6367140  45.4906090   5.0681440
  68.7355130  46.5643550   6.1307760  72.9026050  44.6894040   2.9604770
  72.6021590  44.5659010   3.8608680  72.7963540  43.8302630   2.5520500
  68.7954340  47.2255620   8.0384430  68.3585330  47.4056420   8.8708580
  69.3632020  47.9830240   7.8966150  68.6278770  39.7375850   4.3973310
  67.9727610  39.4687490   3.7533010  69.4656720  39.6280330   3.9475290
  69.6654700  40.1228420   8.9376650  70.0327740  40.0355820   9.8172670
  69.0965520  39.3594970   8.8383510  69.2170700  37.0337510  12.8435070
  68.3226750  37.0004270  13.1828780  69.7568250  37.2324300  13.6086320
  69.7210410  31.3085840   7.1918290  70.3686600  30.7583220   6.7513450
  70.1412250  31.5628990   8.0134100  69.4742410  31.4641510   9.9343610
  69.1257230  31.9205330  10.7001790  69.1430110  30.5698640  10.0166040
  71.0806780  44.6361110  14.0996800  71.0376410  44.2654020  14.9811260
  71.2117790  45.5738680  14.2398620  74.7812810  46.1920700   9.7006520
  74.5404170  46.4595260   8.8137040  75.7215450  46.3626430   9.7557380
  70.1463050  30.9917710  13.2094380  70.6946040  30.8105760  12.4460490
  70.2118360  30.2011820  13.7450690  70.9194810  47.5823360  11.2194580
  70.3255130  47.4508060  11.9584620  70.9118650  46.7461500  10.7536680
  70.5507040  44.9481740  10.1702620  69.8241100  44.3287030  10.1028570
  70.6116190  45.3422350   9.3000700  74.1552140  47.1626740   6.9552030
  74.6717160  46.5514100   6.4300290  74.8049520  47.6655520   7.4463040
  68.8337040  48.2656130   3.3799380  68.6659080  47.6326810   4.0781270
  67.9671550  48.4715530   3.0293570  75.9978870  34.2112180   3.8733550
  75.1853380  33.8369070   3.5329430  76.5020510  33.4557260   4.1754740
  74.0228050  32.3612100   2.4778600  73.3930790  31.6599410   2.6448730
  73.4833190  33.1216230   2.2611760  74.1483610  31.6396080  14.9131090
  73.8667880  32.1429680  14.1491910  74.5303310  30.8417830  14.5473220
  71.8041090  22.3897470  82.4848780  70.9725970  22.1346180  82.8845290
  72.4122070  22.4608240  83.2206700  71.7842350  26.4237560  82.6806800
  72.0870390  25.5335300  82.5017020  72.5285940  26.9807780  82.4529050
  70.2133040  17.3499360  76.2691170  69.3249740  17.6915330  76.1671050
  70.4974230  17.1499680  75.3772000  68.1766050  19.9505010  82.1530870
  68.7482160  19.1827210  82.1534510  68.1767590  20.2493770  81.2437480
  69.4190920  15.3589370  83.9399800  69.2393760  14.4615120  84.2202560
  69.0171000  15.9061240  84.6146750  72.3894430  15.9330860  77.3029550
  72.4961180  16.8334590  77.6098310  71.4786790  15.8848830  77.0124200
  70.0377590  17.8549870  82.5482140  70.7187700  18.1188240  83.1669540
  69.7225640  17.0150740  82.8820150  74.2302160  18.9017230  81.6354730
  74.7380380  19.3998200  82.2759750  74.7615400  18.1252430  81.4594090
  72.5138260  13.5415790  85.9018150  72.5156700  14.0588180  85.0964050
  71.6842570  13.0645970  85.8788080  73.7641110  23.1810970  84.0791650
  73.4310490  23.8079890  84.7212720  73.9407790  23.7072850  83.2993320
  72.1953590  15.2525750  83.9088600  72.5370400  16.0967800  83.6142470
  71.2569400  15.4009490  84.0253940  72.9760210  25.1491770  85.8940830
  73.5934210  25.8242850  85.6125280  72.1153330  25.5579750  85.8028330
  68.2692550  24.3391630  74.7747680  67.8920530  24.8278730  74.0432580
  68.5265620  25.0116910  75.4054210  75.8781480  12.7408020  80.2333190
  76.1856460  12.1854910  79.5168690  74.9482180  12.8752480  80.0506180
  73.8718880  21.3321590  79.7513040  73.4675880  20.6198840  79.2558940
  73.9582000  20.9874830  80.6401080  74.3400580  25.0189150  81.9152250
  74.0428870  24.4134620  81.2360030  75.2900400  25.0566460  81.8041610
  72.5847500  18.1064800  83.5312080  73.1362090  18.2160140  82.7565330
  73.0991010  18.4802400  84.2467310  70.5723510  20.2266570  77.2519690
  70.4521110  20.9528660  76.6400960  70.2624400  19.4569480  76.7747600
  68.2108880  23.3981710  83.0588330  68.2889300  23.5330480  82.1144050
  68.8250560  22.6897600  83.2516450  69.4556510  25.0981900  79.4694510
  69.0484590  25.2396490  78.6148110  70.3469520  24.8142060  79.2665720
  73.7278170  29.3127680  77.5817180  73.5520650  28.3963220  77.3684980
  72.8733910  29.6714970  77.8214980  68.2668400  24.4395880  85.5982790
  68.4299440  23.9701240  84.7802160  68.7320850  23.9319440  86.2631630
  73.0387170  13.5701640  80.6343360  72.5955320  14.3511180  80.3027880
  73.5972160  13.8931530  81.3414300  76.1545990  13.1912340  75.5149190
  75.5300170  13.1872210  76.2402500  76.0676110  12.3243300  75.1185160
  75.0763070  14.1148970  82.4932960  75.3735400  15.0211800  82.4124980
  75.6248630  13.6267750  81.8792530  72.8301390  18.6935210  78.3624610
  72.6042310  18.4772380  79.2671230  72.0493920  19.1263670  78.0170580
  67.7028190  13.9262920  81.2148740  67.4141240  14.4965780  81.9273720
  68.4473950  13.4467370  81.5779970  67.8898420  17.8683040  72.4251460
  67.8073090  18.8113800  72.5666450  67.5381480  17.7257950  71.5463810
  75.6896550  16.6022070  81.4921810  75.6932610  16.1612020  80.6426350
  76.5847670  16.9239400  81.5993630  71.5398930  16.4848560  80.4516020
  71.1998980  16.9623790  81.2083070  70.7776250  16.0313680  80.0917120
  75.7516700  17.6034150  74.4828570  75.8729520  17.5620630  75.4314390
  75.3665210  18.4658300  74.3275300  74.7638200  19.9135290  73.8811870
  74.1955100  19.4653540  73.2547780  75.4727200  20.2728070  73.3477020
  75.9904520  20.6623850  83.2387220  76.3574650  20.1882420  83.9848560
  75.8009580  21.5365420  83.5795560  68.8545010  15.4067540  79.3680690
  68.5691930  15.0423210  80.2059310  68.7923870  14.6748000  78.7543830
  73.7803890  19.7032490  85.5571430  73.4760960  20.5824470  85.7821790
  74.7350350  19.7632280  85.5928870  72.3085680  23.9093480  76.1538280
  71.5347940  23.3691100  75.9937000  73.0380310  23.3900090  75.8156040
  72.3523080  23.5773860  79.7917090  72.8701750  22.7742120  79.7373980
  71.9007100  23.5153000  80.6333920  76.2083270  24.9253670  77.8360310
  76.8954400  25.4722880  78.2167900  75.4215690  25.4694400  77.8709920
  68.3475670  20.5426490  73.3277390  69.2170520  20.8251290  73.6113310
  67.8565990  21.3562360  73.2126200  75.5110480  21.9299700  77.4485670
  75.9673260  22.7404950  77.6745860  75.1598690  21.6122840  78.2804160
  71.4122260  12.2737350  77.9208190  71.2836890  12.2655250  78.8693110
  70.5884280  12.6120440  77.5699200  68.7146920  29.7553870  73.8939020
  69.0744560  30.3543210  73.2396290  68.5739260  30.3013760  74.6674050
  74.7315540  27.1385070  74.7112690  74.7225640  27.8714760  74.0957200
  73.8113900  26.8916650  74.8039650  70.3322180  22.3599960  75.4559450
  69.7250130  23.0998860  75.4654750  70.8071530  22.4499320  74.6297650
  75.2401030  17.7593670  77.3561780  74.5317180  18.2280010  77.7975390
  75.5245510  17.1015680  77.9906970  76.3593250  29.7199630  78.0685550
  76.6134750  29.6821020  77.1464920  75.4105730  29.5932960  78.0613800
  73.4436050  16.0678750  74.7312490  74.2926580  16.5048900  74.6652680
  73.0767320  16.3799010  75.5584550  72.3427470  22.3211110  73.2048020
  73.1090740  22.2092470  73.7673450  72.4202160  21.6249080  72.5524790
  71.0374230  19.7536180  73.8880910  71.1177820  18.8063690  73.9998310
  71.9293980  20.0843060  73.9941570  71.8388940  29.9031570  80.9915450
  72.5751420  29.3547030  81.2624020  72.2229860  30.7687580  80.8521440
  68.7234420  25.9705140  76.8656960  67.7974200  26.2126280  76.8562370
  69.1890850  26.7979400  76.7441710  74.9491250  29.0761880  72.8141020
  75.7419860  29.3650710  72.3622810  74.4295600  28.6454050  72.1353500
  75.4668650  24.2965290  72.6783370  75.3619290  23.6817640  73.4044750
  75.2992870  23.7731180  71.8946380  74.3746500  22.3176240  75.1790660
  74.7962920  22.1516110  76.0222050  74.4997340  21.5076470  74.6845800
  75.7907660  13.8208400  85.0986320  75.3424960  13.8432660  84.2531870
  75.1572860  13.4227420  85.6956620  76.1967210  22.7162730  85.7198760
  76.6155320  23.5595460  85.5475000  75.2775840  22.8534770  85.4905540
  73.2705400  18.3909470  72.1248820  73.0694460  17.5276830  72.4862160
  73.0997450  18.3042830  71.1870420  72.0688200  15.4910090  72.1126700
  72.3714100  15.4977520  71.2045850  72.8082790  15.1407950  72.6094360
  75.2873130  14.4344710  73.0982900  74.9395130  13.7568700  72.5185350
  75.4885900  13.9734220  73.9126290  71.0918330  24.7952510  72.9456500
  71.5293200  25.3382180  73.6014080  71.5766060  23.9699460  72.9552840
  68.3064130  27.5841540  80.3976760  68.6367140  26.7162600  80.1655400
  68.7355130  27.7900060  81.2281720  72.9026050  25.9150550  78.0578730
  72.6021590  25.7915520  78.9582640  72.7963540  25.0559140  77.6494460
  68.7954340  28.4512130  83.1358390  68.3585330  28.6312930  83.9682540
  69.3632020  29.2086750  82.9940110  68.6278770  20.9632360  79.4947270
  67.9727610  20.6944000  78.8506970  69.4656720  20.8536840  79.0449250
  69.6654700  21.3484930  84.0350610  70.0327740  21.2612330  84.9146630
  69.0965520  20.5851480  83.9357470  67.8416850  18.1731290  75.4372600
  66.9380930  18.4361490  75.2624260  68.3257470  18.4442460  74.6572560
  70.3844060  17.2296830  73.3466980  71.0935760  16.8080050  72.8614260
  69.6684000  17.2972060  72.7150330  70.0318220  13.2836160  72.3869630
  70.7546350  13.8245100  72.7050850  70.3042740  13.0099580  71.5111170
  69.7210410  12.5342350  82.2892250  70.3686600  11.9839730  81.8487410
  70.1412250  12.7885500  83.1108060  69.4742410  12.6898020  85.0317570
  69.1257230  13.1461840  85.7975750  69.1430110  11.7955150  85.1140000
  74.7812810  27.4177210  84.7980480  74.5404170  27.6851770  83.9111000
  75.7215450  27.5882940  84.8531340  70.5507040  26.1738250  85.2676580
  69.8241100  25.5543540  85.2002530  70.6116190  26.5678860  84.3974660
  74.1552140  28.3883250  82.0525990  74.6717160  27.7770610  81.5274250
  74.8049520  28.8912030  82.5437000  68.8337040  29.4912640  78.4773340
  68.6659080  28.8583320  79.1755230  67.9671550  29.6972040  78.1267530
  69.4565060  13.3229420  75.9805200  70.2144420  13.4358300  75.4069230
  68.9942230  14.1598620  75.9348630  75.9978870  15.4368690  78.9707510
  75.1853380  15.0625580  78.6303390  76.5020510  14.6813770  79.2728700
  70.4399740  28.1845870  75.9223480  69.9147360  28.5653900  75.2185440
  70.3644320  28.8096640  76.6433190  71.8290210  13.8493470  74.5207170
  72.3582970  13.0623270  74.3915120  72.4618530  14.5284660  74.7542700
  74.0228050  13.5868610  77.5752560  73.3930790  12.8855920  77.7422690
  73.4833190  14.3472740  77.3585720  73.0392710  30.1328250  74.7972730
  73.7711530  29.8487530  74.2496620  73.2986380  29.8941530  75.6872110
  72.2007500  26.2492980  74.8019060  71.5716380  26.7178080  75.3504890
  72.3155330  25.4042200  75.2365250  71.8041090  22.3897470  63.7105290
  70.9725970  22.1346180  64.1101800  72.4122070  22.4608240  64.4463210
  71.7842350  26.4237560  63.9063310  72.0870390  25.5335300  63.7273530
  72.5285940  26.9807780  63.6785560  70.2133040  17.3499360  57.4947680
  69.3249740  17.6915330  57.3927560  70.4974230  17.1499680  56.6028510
  68.1766050  19.9505010  63.3787380  68.7482160  19.1827210  63.3791020
  68.1767590  20.2493770  62.4693990  69.4190920  15.3589370  65.1656310
  69.2393760  14.4615120  65.4459070  69.0171000  15.9061240  65.8403260
  72.3894430  15.9330860  58.5286060  72.4961180  16.8334590  58.8354820
  71.4786790  15.8848830  58.2380710  70.0377590  17.8549870  63.7738650
  70.7187700  18.1188240  64.3926050  69.7225640  17.0150740  64.1076660
  74.2302160  18.9017230  62.8611240  74.7380380  19.3998200  63.5016260
  74.7615400  18.1252430  62.6850600  72.5138260  13.5415790  67.1274660
  72.5156700  14.0588180  66.3220560  71.6842570  13.0645970  67.1044590
  73.7641110  23.1810970  65.3048160  73.4310490  23.8079890  65.9469230
  73.9407790  23.7072850  64.5249830  72.1953590  15.2525750  65.1345110
  72.5370400  16.0967800  64.8398980  71.2569400  15.4009490  65.2510450
  72.9760210  25.1491770  67.1197340  73.5934210  25.8242850  66.8381790
  72.1153330  25.5579750  67.0284840  68.2692550  24.3391630  56.0004190
  67.8920530  24.8278730  55.2689090  68.5265620  25.0116910  56.6310720
  75.8781480  12.7408020  61.4589700  76.1856460  12.1854910  60.7425200
  74.9482180  12.8752480  61.2762690  73.8718880  21.3321590  60.9769550
  73.4675880  20.6198840  60.4815450  73.9582000  20.9874830  61.8657590
  74.3400580  25.0189150  63.1408760  74.0428870  24.4134620  62.4616540
  75.2900400  25.0566460  63.0298120  72.5847500  18.1064800  64.7568590
  73.1362090  18.2160140  63.9821840  73.0991010  18.4802400  65.4723820
  73.4319010  24.7570840  69.7916560  72.5347540  24.9810810  70.0389960
  73.4571880  24.8805780  68.8427960  72.2590230  21.6284160  68.3673930
  72.1198000  22.5006960  68.7361330  71.3771590  21.2856970  68.2221870
  74.0570580  27.5705860  70.5759080  74.0286010  27.9748810  69.7087510
  73.8935550  26.6416220  70.4130680  70.5723510  20.2266570  58.4776200
  70.4521110  20.9528660  57.8657470  70.2624400  19.4569480  58.0004110
  68.2108880  23.3981710  64.2844840  68.2889300  23.5330480  63.3400560
  68.8250560  22.6897600  64.4772960  69.4556510  25.0981900  60.6951020
  69.0484590  25.2396490  59.8404620  70.3469520  24.8142060  60.4922230
  73.7278170  29.3127680  58.8073690  73.5520650  28.3963220  58.5941490
  72.8733910  29.6714970  59.0471490  68.2668400  24.4395880  66.8239300
  68.4299440  23.9701240  66.0058670  68.7320850  23.9319440  67.4888140
  73.0387170  13.5701640  61.8599870  72.5955320  14.3511180  61.5284390
  73.5972160  13.8931530  62.5670810  76.1545990  13.1912340  56.7405700
  75.5300170  13.1872210  57.4659010  76.0676110  12.3243300  56.3441670
  75.0763070  14.1148970  63.7189470  75.3735400  15.0211800  63.6381490
  75.6248630  13.6267750  63.1049040  72.8301390  18.6935210  59.5881120
  72.6042310  18.4772380  60.4927740  72.0493920  19.1263670  59.2427090
  75.2700600  19.5920790  70.2541390  75.1744200  18.6515520  70.1041790
  76.1132580  19.8135860  69.8589460  70.4011140  16.0034460  68.4075170
  70.0074530  16.8509670  68.6147950  69.7129540  15.3660830  68.5983810
  67.7028190  13.9262920  62.4405250  67.4141240  14.4965780  63.1530230
  68.4473950  13.4467370  62.8036480  67.8898420  17.8683040  53.6507970
  67.8073090  18.8113800  53.7922960  67.5381480  17.7257950  52.7720320
  75.6896550  16.6022070  62.7178320  75.6932610  16.1612020  61.8682860
  76.5847670  16.9239400  62.8250140  71.5398930  16.4848560  61.6772530
  71.1998980  16.9623790  62.4339580  70.7776250  16.0313680  61.3173630
  75.7516700  17.6034150  55.7085080  75.8729520  17.5620630  56.6570900
  75.3665210  18.4658300  55.5531810  74.7638200  19.9135290  55.1068380
  74.1955100  19.4653540  54.4804290  75.4727200  20.2728070  54.5733530
  69.8407380  23.8147310  68.9835110  69.4562170  23.1740980  69.5818070
  70.1519570  24.5183430  69.5529840  75.9904520  20.6623850  64.4643730
  76.3574650  20.1882420  65.2105070  75.8009580  21.5365420  64.8052070
  68.8545010  15.4067540  60.5937200  68.5691930  15.0423210  61.4315820
  68.7923870  14.6748000  59.9800340  73.7803890  19.7032490  66.7827940
  73.4760960  20.5824470  67.0078300  74.7350350  19.7632280  66.8185380
  72.3085680  23.9093480  57.3794790  71.5347940  23.3691100  57.2193510
  73.0380310  23.3900090  57.0412550  72.3523080  23.5773860  61.0173600
  72.8701750  22.7742120  60.9630490  71.9007100  23.5153000  61.8590430
  69.8367620  20.5435230  67.9299300  69.4782560  21.2089080  68.5172640
  69.5422180  19.7118780  68.3011920  73.0380740  21.0019470  70.8138850
  72.7380880  21.1476650  69.9166670  73.8091980  20.4424760  70.7212240
  76.2083270  24.9253670  59.0616820  76.8954400  25.4722880  59.4424410
  75.4215690  25.4694400  59.0966430  68.3475670  20.5426490  54.5533900
  69.2170520  20.8251290  54.8369820  67.8565990  21.3562360  54.4382710
  75.5110480  21.9299700  58.6742180  75.9673260  22.7404950  58.9002370
  75.1598690  21.6122840  59.5060670  71.4122260  12.2737350  59.1464700
  71.2836890  12.2655250  60.0949620  70.5884280  12.6120440  58.7955710
  68.7146920  29.7553870  55.1195530  69.0744560  30.3543210  54.4652800
  68.5739260  30.3013760  55.8930560  68.4116190  14.0328470  68.6071400
  67.6974710  14.2325390  69.2124010  68.8311230  13.2568040  68.9786200
  68.6988780  28.0208730  69.5937930  68.8079900  27.0803470  69.4533320
  68.0469340  28.2863480  68.9451660  76.6901370  26.2924620  70.9936050
  76.3698240  25.5733860  71.5381740  76.0159730  26.9679690  71.0672110
  74.7315540  27.1385070  55.9369200  74.7225640  27.8714760  55.3213710
  73.8113900  26.8916650  56.0296160  70.3322180  22.3599960  56.6815960
  69.7250130  23.0998860  56.6911260  70.8071530  22.4499320  55.8554160
  75.2401030  17.7593670  58.5818290  74.5317180  18.2280010  59.0231900
  75.5245510  17.1015680  59.2163480  76.3593250  29.7199630  59.2942060
  76.6134750  29.6821020  58.3721430  75.4105730  29.5932960  59.2870310
  73.4436050  16.0678750  55.9569000  74.2926580  16.5048900  55.8909190
  73.0767320  16.3799010  56.7841060  72.3427470  22.3211110  54.4304530
  73.1090740  22.2092470  54.9929960  72.4202160  21.6249080  53.7781300
  71.0374230  19.7536180  55.1137420  71.1177820  18.8063690  55.2254820
  71.9293980  20.0843060  55.2198080  71.8388940  29.9031570  62.2171960
  72.5751420  29.3547030  62.4880530  72.2229860  30.7687580  62.0777950
  68.7234420  25.9705140  58.0913470  67.7974200  26.2126280  58.0818880
  69.1890850  26.7979400  57.9698220  70.8447220  29.0877640  71.4057540
  71.6459950  29.4089690  71.8192940  70.3299040  28.7273220  72.1277450
  74.9491250  29.0761880  54.0397530  75.7419860  29.3650710  53.5879320
  74.4295600  28.6454050  53.3610010  68.5645030  21.5751100  70.3493590
  69.0684050  20.9958380  70.9209820  67.8252450  21.8591330  70.8869960
  75.4668650  24.2965290  53.9039880  75.3619290  23.6817640  54.6301260
  75.2992870  23.7731180  53.1202890  75.6182970  22.9822090  69.8829110
  74.8528640  23.5507090  69.7983780  75.7998930  22.6898300  68.9897340
  70.5968110  19.7180690  71.2443660  70.6373450  19.4194560  72.1528890
  71.4513610  20.1188300  71.0851180  74.3746500  22.3176240  56.4047170
  74.7962920  22.1516110  57.2478560  74.4997340  21.5076470  55.9102310
  72.5373920  18.2972790  69.2118150  72.0070380  17.8063740  68.5841490
  73.2061990  18.7256990  68.6776080  73.0246220  15.2635160  69.2915440
  72.9303090  14.6455910  68.5666310  72.4443610  15.9901450  69.0645350
  75.7907660  13.8208400  66.3242830  75.3424960  13.8432660  65.4788380
  75.1572860  13.4227420  66.9213130  76.1967210  22.7162730  66.9455270
  76.6155320  23.5595460  66.7731510  75.2775840  22.8534770  66.7162050
  73.2705400  18.3909470  53.3505330  73.0694460  17.5276830  53.7118670
  73.0997450  18.3042830  52.4126930  74.0474630  29.0215740  68.0613000
  73.5095720  29.7461800  67.7421700  74.3008590  28.5446080  67.2710340
  75.2999880  16.9900260  69.5868930  75.8899570  16.6816110  70.2746750
  74.4820120  16.5180010  69.7428830  72.0688200  15.4910090  53.3383210
  72.3714100  15.4977520  52.4302360  72.8082790  15.1407950  53.8350870
  76.9036840  30.2566950  68.3199650  76.8295540  31.1602090  68.6272020
  76.0015680  29.9378850  68.2921720  75.2873130  14.4344710  54.3239410
  74.9395130  13.7568700  53.7441860  75.4885900  13.9734220  55.1382800
  71.0918330  24.7952510  54.1713010  71.5293200  25.3382180  54.8270590
  71.5766060  23.9699460  54.1809350  68.3064130  27.5841540  61.6233270
  68.6367140  26.7162600  61.3911910  68.7355130  27.7900060  62.4538230
  72.9026050  25.9150550  59.2835240  72.6021590  25.7915520  60.1839150
  72.7963540  25.0559140  58.8750970  68.7954340  28.4512130  64.3614900
  68.3585330  28.6312930  65.1939050  69.3632020  29.2086750  64.2196620
  68.6278770  20.9632360  60.7203780  67.9727610  20.6944000  60.0763480
  69.4656720  20.8536840  60.2705760  69.6654700  21.3484930  65.2607120
  70.0327740  21.2612330  66.1403140  69.0965520  20.5851480  65.1613980
  69.2170700  18.2594020  69.1665540  68.3226750  18.2260780  69.5059250
  69.7568250  18.4580810  69.9316790  67.8416850  18.1731290  56.6629110
  66.9380930  18.4361490  56.4880770  68.3257470  18.4442460  55.8829070
  70.3844060  17.2296830  54.5723490  71.0935760  16.8080050  54.0870770
  69.6684000  17.2972060  53.9406840  70.0318220  13.2836160  53.6126140
  70.7546350  13.8245100  53.9307360  70.3042740  13.0099580  52.7367680
  69.7210410  12.5342350  63.5148760  70.3686600  11.9839730  63.0743920
  70.1412250  12.7885500  64.3364570  69.4742410  12.6898020  66.2574080
  69.1257230  13.1461840  67.0232260  69.1430110  11.7955150  66.3396510
  71.0806780  25.8617620  70.4227270  71.0376410  25.4910530  71.3041730
  71.2117790  26.7995190  70.5629090  74.7812810  27.4177210  66.0236990
  74.5404170  27.6851770  65.1367510  75.7215450  27.5882940  66.0787850
  70.1463050  12.2174220  69.5324850  70.6946040  12.0362270  68.7690960
  70.2118360  11.4268330  70.0681160  70.9194810  28.8079870  67.5425050
  70.3255130  28.6764570  68.2815090  70.9118650  27.9718010  67.0767150
  70.5507040  26.1738250  66.4933090  69.8241100  25.5543540  66.4259040
  70.6116190  26.5678860  65.6231170  74.1552140  28.3883250  63.2782500
  74.6717160  27.7770610  62.7530760  74.8049520  28.8912030  63.7693510
  68.8337040  29.4912640  59.7029850  68.6659080  28.8583320  60.4011740
  67.9671550  29.6972040  59.3524040  69.4565060  13.3229420  57.2061710
  70.2144420  13.4358300  56.6325740  68.9942230  14.1598620  57.1605140
  75.9978870  15.4368690  60.1964020  75.1853380  15.0625580  59.8559900
  76.5020510  14.6813770  60.4985210  70.4399740  28.1845870  57.1479990
  69.9147360  28.5653900  56.4441950  70.3644320  28.8096640  57.8689700
  71.8290210  13.8493470  55.7463680  72.3582970  13.0623270  55.6171630
  72.4618530  14.5284660  55.9799210  74.0228050  13.5868610  58.8009070
  73.3930790  12.8855920  58.9679200  73.4833190  14.3472740  58.5842230
  74.1483610  12.8652590  71.2361560  73.8667880  13.3686190  70.4722380
  74.5303310  12.0674340  70.8703690  73.0392710  30.1328250  56.0229240
  73.7711530  29.8487530  55.4753130  73.2986380  29.8941530  56.9128620
  72.2007500  26.2492980  56.0275570  71.5716380  26.7178080  56.5761400
  72.3155330  25.4042200  56.4621760  71.8041090  22.3897470  44.9361800
  70.9725970  22.1346180  45.3358310  72.4122070  22.4608240  45.6719720
  71.7842350  26.4237560  45.1319820  72.0870390  25.5335300  44.9530040
  72.5285940  26.9807780  44.9042070  70.2133040  17.3499360  38.7204190
  69.3249740  17.6915330  38.6184070  70.4974230  17.1499680  37.8285020
  68.1766050  19.9505010  44.6043890  68.7482160  19.1827210  44.6047530
  68.1767590  20.2493770  43.6950500  69.4190920  15.3589370  46.3912820
  69.2393760  14.4615120  46.6715580  69.0171000  15.9061240  47.0659770
  72.3894430  15.9330860  39.7542570  72.4961180  16.8334590  40.0611330
  71.4786790  15.8848830  39.4637220  70.0377590  17.8549870  44.9995160
  70.7187700  18.1188240  45.6182560  69.7225640  17.0150740  45.3333170
  74.2302160  18.9017230  44.0867750  74.7380380  19.3998200  44.7272770
  74.7615400  18.1252430  43.9107110  72.5138260  13.5415790  48.3531170
  72.5156700  14.0588180  47.5477070  71.6842570  13.0645970  48.3301100
  73.7641110  23.1810970  46.5304670  73.4310490  23.8079890  47.1725740
  73.9407790  23.7072850  45.7506340  72.1953590  15.2525750  46.3601620
  72.5370400  16.0967800  46.0655490  71.2569400  15.4009490  46.4766960
  72.9760210  25.1491770  48.3453850  73.5934210  25.8242850  48.0638300
  72.1153330  25.5579750  48.2541350  68.2692550  24.3391630  37.2260700
  67.8920530  24.8278730  36.4945600  68.5265620  25.0116910  37.8567230
  75.8781480  12.7408020  42.6846210  76.1856460  12.1854910  41.9681710
  74.9482180  12.8752480  42.5019200  73.8718880  21.3321590  42.2026060
  73.4675880  20.6198840  41.7071960  73.9582000  20.9874830  43.0914100
  74.3400580  25.0189150  44.3665270  74.0428870  24.4134620  43.6873050
  75.2900400  25.0566460  44.2554630  72.5847500  18.1064800  45.9825100
  73.1362090  18.2160140  45.2078350  73.0991010  18.4802400  46.6980330
  73.4319010  24.7570840  51.0173070  72.5347540  24.9810810  51.2646470
  73.4571880  24.8805780  50.0684470  72.2590230  21.6284160  49.5930440
  72.1198000  22.5006960  49.9617840  71.3771590  21.2856970  49.4478380
  74.0570580  27.5705860  51.8015590  74.0286010  27.9748810  50.9344020
  73.8935550  26.6416220  51.6387190  70.5723510  20.2266570  39.7032710
  70.4521110  20.9528660  39.0913980  70.2624400  19.4569480  39.2260620
  68.2108880  23.3981710  45.5101350  68.2889300  23.5330480  44.5657070
  68.8250560  22.6897600  45.7029470  69.4556510  25.0981900  41.9207530
  69.0484590  25.2396490  41.0661130  70.3469520  24.8142060  41.7178740
  73.7278170  29.3127680  40.0330200  73.5520650  28.3963220  39.8198000
  72.8733910  29.6714970  40.2728000  68.2668400  24.4395880  48.0495810
  68.4299440  23.9701240  47.2315180  68.7320850  23.9319440  48.7144650
  73.0387170  13.5701640  43.0856380  72.5955320  14.3511180  42.7540900
  73.5972160  13.8931530  43.7927320  76.1545990  13.1912340  37.9662210
  75.5300170  13.1872210  38.6915520  76.0676110  12.3243300  37.5698180
  75.0763070  14.1148970  44.9445980  75.3735400  15.0211800  44.8638000
  75.6248630  13.6267750  44.3305550  72.8301390  18.6935210  40.8137630
  72.6042310  18.4772380  41.7184250  72.0493920  19.1263670  40.4683600
  75.2700600  19.5920790  51.4797900  75.1744200  18.6515520  51.3298300
  76.1132580  19.8135860  51.0845970  70.4011140  16.0034460  49.6331680
  70.0074530  16.8509670  49.8404460  69.7129540  15.3660830  49.8240320
  67.7028190  13.9262920  43.6661760  67.4141240  14.4965780  44.3786740
  68.4473950  13.4467370  44.0292990  67.8898420  17.8683040  34.8764480
  67.8073090  18.8113800  35.0179470  67.5381480  17.7257950  33.9976830
  75.6896550  16.6022070  43.9434830  75.6932610  16.1612020  43.0939370
  76.5847670  16.9239400  44.0506650  71.5398930  16.4848560  42.9029040
  71.1998980  16.9623790  43.6596090  70.7776250  16.0313680  42.5430140
  75.7516700  17.6034150  36.9341590  75.8729520  17.5620630  37.8827410
  75.3665210  18.4658300  36.7788320  74.7638200  19.9135290  36.3324890
  74.1955100  19.4653540  35.7060800  75.4727200  20.2728070  35.7990040
  69.8407380  23.8147310  50.2091620  69.4562170  23.1740980  50.8074580
  70.1519570  24.5183430  50.7786350  75.9904520  20.6623850  45.6900240
  76.3574650  20.1882420  46.4361580  75.8009580  21.5365420  46.0308580
  68.8545010  15.4067540  41.8193710  68.5691930  15.0423210  42.6572330
  68.7923870  14.6748000  41.2056850  73.7803890  19.7032490  48.0084450
  73.4760960  20.5824470  48.2334810  74.7350350  19.7632280  48.0441890
  72.3085680  23.9093480  38.6051300  71.5347940  23.3691100  38.4450020
  73.0380310  23.3900090  38.2669060  72.3523080  23.5773860  42.2430110
  72.8701750  22.7742120  42.1887000  71.9007100  23.5153000  43.0846940
  69.8367620  20.5435230  49.1555810  69.4782560  21.2089080  49.7429150
  69.5422180  19.7118780  49.5268430  73.0380740  21.0019470  52.0395360
  72.7380880  21.1476650  51.1423180  73.8091980  20.4424760  51.9468750
  76.2083270  24.9253670  40.2873330  76.8954400  25.4722880  40.6680920
  75.4215690  25.4694400  40.3222940  68.3475670  20.5426490  35.7790410
  69.2170520  20.8251290  36.0626330  67.8565990  21.3562360  35.6639220
  75.5110480  21.9299700  39.8998690  75.9673260  22.7404950  40.1258880
  75.1598690  21.6122840  40.7317180  71.4122260  12.2737350  40.3721210
  71.2836890  12.2655250  41.3206130  70.5884280  12.6120440  40.0212220
  68.7146920  29.7553870  36.3452040  69.0744560  30.3543210  35.6909310
  68.5739260  30.3013760  37.1187070  68.4116190  14.0328470  49.8327910
  67.6974710  14.2325390  50.4380520  68.8311230  13.2568040  50.2042710
  68.6988780  28.0208730  50.8194440  68.8079900  27.0803470  50.6789830
  68.0469340  28.2863480  50.1708170  76.6901370  26.2924620  52.2192560
  76.3698240  25.5733860  52.7638250  76.0159730  26.9679690  52.2928620
  74.7315540  27.1385070  37.1625710  74.7225640  27.8714760  36.5470220
  73.8113900  26.8916650  37.2552670  70.3322180  22.3599960  37.9072470
  69.7250130  23.0998860  37.9167770  70.8071530  22.4499320  37.0810670
  75.2401030  17.7593670  39.8074800  74.5317180  18.2280010  40.2488410
  75.5245510  17.1015680  40.4419990  76.3593250  29.7199630  40.5198570
  76.6134750  29.6821020  39.5977940  75.4105730  29.5932960  40.5126820
  73.4436050  16.0678750  37.1825510  74.2926580  16.5048900  37.1165700
  73.0767320  16.3799010  38.0097570  72.3427470  22.3211110  35.6561040
  73.1090740  22.2092470  36.2186470  72.4202160  21.6249080  35.0037810
  71.0374230  19.7536180  36.3393930  71.1177820  18.8063690  36.4511330
  71.9293980  20.0843060  36.4454590  71.8388940  29.9031570  43.4428470
  72.5751420  29.3547030  43.7137040  72.2229860  30.7687580  43.3034460
  68.7234420  25.9705140  39.3169980  67.7974200  26.2126280  39.3075390
  69.1890850  26.7979400  39.1954730  70.8447220  29.0877640  52.6314050
  71.6459950  29.4089690  53.0449450  70.3299040  28.7273220  53.3533960
  74.9491250  29.0761880  35.2654040  75.7419860  29.3650710  34.8135830
  74.4295600  28.6454050  34.5866520  68.5645030  21.5751100  51.5750100
  69.0684050  20.9958380  52.1466330  67.8252450  21.8591330  52.1126470
  75.4668650  24.2965290  35.1296390  75.3619290  23.6817640  35.8557770
  75.2992870  23.7731180  34.3459400  75.6182970  22.9822090  51.1085620
  74.8528640  23.5507090  51.0240290  75.7998930  22.6898300  50.2153850
  70.5968110  19.7180690  52.4700170  70.6373450  19.4194560  53.3785400
  71.4513610  20.1188300  52.3107690  74.3746500  22.3176240  37.6303680
  74.7962920  22.1516110  38.4735070  74.4997340  21.5076470  37.1358820
  72.5373920  18.2972790  50.4374660  72.0070380  17.8063740  49.8098000
  73.2061990  18.7256990  49.9032590  73.0246220  15.2635160  50.5171950
  72.9303090  14.6455910  49.7922820  72.4443610  15.9901450  50.2901860
  75.7907660  13.8208400  47.5499340  75.3424960  13.8432660  46.7044890
  75.1572860  13.4227420  48.1469640  76.1967210  22.7162730  48.1711780
  76.6155320  23.5595460  47.9988020  75.2775840  22.8534770  47.9418560
  73.2705400  18.3909470  34.5761840  73.0694460  17.5276830  34.9375180
  73.0997450  18.3042830  33.6383440  74.0474630  29.0215740  49.2869510
  73.5095720  29.7461800  48.9678210  74.3008590  28.5446080  48.4966850
  75.2999880  16.9900260  50.8125440  75.8899570  16.6816110  51.5003260
  74.4820120  16.5180010  50.9685340  72.0688200  15.4910090  34.5639720
  72.3714100  15.4977520  33.6558870  72.8082790  15.1407950  35.0607380
  76.9036840  30.2566950  49.5456160  76.8295540  31.1602090  49.8528530
  76.0015680  29.9378850  49.5178230  75.2873130  14.4344710  35.5495920
  74.9395130  13.7568700  34.9698370  75.4885900  13.9734220  36.3639310
  71.0918330  24.7952510  35.3969520  71.5293200  25.3382180  36.0527100
  71.5766060  23.9699460  35.4065860  68.3064130  27.5841540  42.8489780
  68.6367140  26.7162600  42.6168420  68.7355130  27.7900060  43.6794740
  72.9026050  25.9150550  40.5091750  72.6021590  25.7915520  41.4095660
  72.7963540  25.0559140  40.1007480  68.7954340  28.4512130  45.5871410
  68.3585330  28.6312930  46.4195560  69.3632020  29.2086750  45.4453130
  68.6278770  20.9632360  41.9460290  67.9727610  20.6944000  41.3019990
  69.4656720  20.8536840  41.4962270  69.6654700  21.3484930  46.4863630
  70.0327740  21.2612330  47.3659650  69.0965520  20.5851480  46.3870490
  69.2170700  18.2594020  50.3922050  68.3226750  18.2260780  50.7315760
  69.7568250  18.4580810  51.1573300  67.8416850  18.1731290  37.8885620
  66.9380930  18.4361490  37.7137280  68.3257470  18.4442460  37.1085580
  70.3844060  17.2296830  35.7980000  71.0935760  16.8080050  35.3127280
  69.6684000  17.2972060  35.1663350  70.0318220  13.2836160  34.8382650
  70.7546350  13.8245100  35.1563870  70.3042740  13.0099580  33.9624190
  69.7210410  12.5342350  44.7405270  70.3686600  11.9839730  44.3000430
  70.1412250  12.7885500  45.5621080  69.4742410  12.6898020  47.4830590
  69.1257230  13.1461840  48.2488770  69.1430110  11.7955150  47.5653020
  71.0806780  25.8617620  51.6483780  71.0376410  25.4910530  52.5298240
  71.2117790  26.7995190  51.7885600  74.7812810  27.4177210  47.2493500
  74.5404170  27.6851770  46.3624020  75.7215450  27.5882940  47.3044360
  70.1463050  12.2174220  50.7581360  70.6946040  12.0362270  49.9947470
  70.2118360  11.4268330  51.2937670  70.9194810  28.8079870  48.7681560
  70.3255130  28.6764570  49.5071600  70.9118650  27.9718010  48.3023660
  70.5507040  26.1738250  47.7189600  69.8241100  25.5543540  47.6515550
  70.6116190  26.5678860  46.8487680  74.1552140  28.3883250  44.5039010
  74.6717160  27.7770610  43.9787270  74.8049520  28.8912030  44.9950020
  68.8337040  29.4912640  40.9286360  68.6659080  28.8583320  41.6268250
  67.9671550  29.6972040  40.5780550  69.4565060  13.3229420  38.4318220
  70.2144420  13.4358300  37.8582250  68.9942230  14.1598620  38.3861650
  75.9978870  15.4368690  41.4220530  75.1853380  15.0625580  41.0816410
  76.5020510  14.6813770  41.7241720  70.4399740  28.1845870  38.3736500
  69.9147360  28.5653900  37.6698460  70.3644320  28.8096640  39.0946210
  71.8290210  13.8493470  36.9720190  72.3582970  13.0623270  36.8428140
  72.4618530  14.5284660  37.2055720  74.0228050  13.5868610  40.0265580
  73.3930790  12.8855920  40.1935710  73.4833190  14.3472740  39.8098740
  74.1483610  12.8652590  52.4618070  73.8667880  13.3686190  51.6978890
  74.5303310  12.0674340  52.0960200  73.0392710  30.1328250  37.2485750
  73.7711530  29.8487530  36.7009640  73.2986380  29.8941530  38.1385130
  72.2007500  26.2492980  37.2532080  71.5716380  26.7178080  37.8017910
  72.3155330  25.4042200  37.6878270  71.8041090  22.3897470  26.1618310
  70.9725970  22.1346180  26.5614820  72.4122070  22.4608240  26.8976230
  71.7842350  26.4237560  26.3576330  72.0870390  25.5335300  26.1786550
  72.5285940  26.9807780  26.1298580  70.2133040  17.3499360  19.9460700
  69.3249740  17.6915330  19.8440580  70.4974230  17.1499680  19.0541530
  68.1766050  19.9505010  25.8300400  68.7482160  19.1827210  25.8304040
  68.1767590  20.2493770  24.9207010  69.4190920  15.3589370  27.6169330
  69.2393760  14.4615120  27.8972090  69.0171000  15.9061240  28.2916280
  72.3894430  15.9330860  20.9799080  72.4961180  16.8334590  21.2867840
  71.4786790  15.8848830  20.6893730  70.0377590  17.8549870  26.2251670
  70.7187700  18.1188240  26.8439070  69.7225640  17.0150740  26.5589680
  74.2302160  18.9017230  25.3124260  74.7380380  19.3998200  25.9529280
  74.7615400  18.1252430  25.1363620  72.5138260  13.5415790  29.5787680
  72.5156700  14.0588180  28.7733580  71.6842570  13.0645970  29.5557610
  73.7641110  23.1810970  27.7561180  73.4310490  23.8079890  28.3982250
  73.9407790  23.7072850  26.9762850  72.1953590  15.2525750  27.5858130
  72.5370400  16.0967800  27.2912000  71.2569400  15.4009490  27.7023470
  72.9760210  25.1491770  29.5710360  73.5934210  25.8242850  29.2894810
  72.1153330  25.5579750  29.4797860  68.2692550  24.3391630  18.4517210
  67.8920530  24.8278730  17.7202110  68.5265620  25.0116910  19.0823740
  75.8781480  12.7408020  23.9102720  76.1856460  12.1854910  23.1938220
  74.9482180  12.8752480  23.7275710  73.8718880  21.3321590  23.4282570
  73.4675880  20.6198840  22.9328470  73.9582000  20.9874830  24.3170610
  74.3400580  25.0189150  25.5921780  74.0428870  24.4134620  24.9129560
  75.2900400  25.0566460  25.4811140  72.5847500  18.1064800  27.2081610
  73.1362090  18.2160140  26.4334860  73.0991010  18.4802400  27.9236840
  73.4319010  24.7570840  32.2429580  72.5347540  24.9810810  32.4902980
  73.4571880  24.8805780  31.2940980  72.2590230  21.6284160  30.8186950
  72.1198000  22.5006960  31.1874350  71.3771590  21.2856970  30.6734890
  74.0570580  27.5705860  33.0272100  74.0286010  27.9748810  32.1600530
  73.8935550  26.6416220  32.8643700  70.5723510  20.2266570  20.9289220
  70.4521110  20.9528660  20.3170490  70.2624400  19.4569480  20.4517130
  68.2108880  23.3981710  26.7357860  68.2889300  23.5330480  25.7913580
  68.8250560  22.6897600  26.9285980  69.4556510  25.0981900  23.1464040
  69.0484590  25.2396490  22.2917640  70.3469520  24.8142060  22.9435250
  73.7278170  29.3127680  21.2586710  73.5520650  28.3963220  21.0454510
  72.8733910  29.6714970  21.4984510  68.2668400  24.4395880  29.2752320
  68.4299440  23.9701240  28.4571690  68.7320850  23.9319440  29.9401160
  73.0387170  13.5701640  24.3112890  72.5955320  14.3511180  23.9797410
  73.5972160  13.8931530  25.0183830  76.1545990  13.1912340  19.1918720
  75.5300170  13.1872210  19.9172030  76.0676110  12.3243300  18.7954690
  75.0763070  14.1148970  26.1702490  75.3735400  15.0211800  26.0894510
  75.6248630  13.6267750  25.5562060  72.8301390  18.6935210  22.0394140
  72.6042310  18.4772380  22.9440760  72.0493920  19.1263670  21.6940110
  75.2700600  19.5920790  32.7054410  75.1744200  18.6515520  32.5554810
  76.1132580  19.8135860  32.3102480  70.4011140  16.0034460  30.8588190
  70.0074530  16.8509670  31.0660970  69.7129540  15.3660830  31.0496830
  67.7028190  13.9262920  24.8918270  67.4141240  14.4965780  25.6043250
  68.4473950  13.4467370  25.2549500  67.8898420  17.8683040  16.1020990
  67.8073090  18.8113800  16.2435980  67.5381480  17.7257950  15.2233340
  75.6896550  16.6022070  25.1691340  75.6932610  16.1612020  24.3195880
  76.5847670  16.9239400  25.2763160  71.5398930  16.4848560  24.1285550
  71.1998980  16.9623790  24.8852600  70.7776250  16.0313680  23.7686650
  75.7516700  17.6034150  18.1598100  75.8729520  17.5620630  19.1083920
  75.3665210  18.4658300  18.0044830  74.7638200  19.9135290  17.5581400
  74.1955100  19.4653540  16.9317310  75.4727200  20.2728070  17.0246550
  69.8407380  23.8147310  31.4348130  69.4562170  23.1740980  32.0331090
  70.1519570  24.5183430  32.0042860  75.9904520  20.6623850  26.9156750
  76.3574650  20.1882420  27.6618090  75.8009580  21.5365420  27.2565090
  68.8545010  15.4067540  23.0450220  68.5691930  15.0423210  23.8828840
  68.7923870  14.6748000  22.4313360  73.7803890  19.7032490  29.2340960
  73.4760960  20.5824470  29.4591320  74.7350350  19.7632280  29.2698400
  72.3085680  23.9093480  19.8307810  71.5347940  23.3691100  19.6706530
  73.0380310  23.3900090  19.4925570  72.3523080  23.5773860  23.4686620
  72.8701750  22.7742120  23.4143510  71.9007100  23.5153000  24.3103450
  69.8367620  20.5435230  30.3812320  69.4782560  21.2089080  30.9685660
  69.5422180  19.7118780  30.7524940  73.0380740  21.0019470  33.2651870
  72.7380880  21.1476650  32.3679690  73.8091980  20.4424760  33.1725260
  76.2083270  24.9253670  21.5129840  76.8954400  25.4722880  21.8937430
  75.4215690  25.4694400  21.5479450  68.3475670  20.5426490  17.0046920
  69.2170520  20.8251290  17.2882840  67.8565990  21.3562360  16.8895730
  75.5110480  21.9299700  21.1255200  75.9673260  22.7404950  21.3515390
  75.1598690  21.6122840  21.9573690  71.4122260  12.2737350  21.5977720
  71.2836890  12.2655250  22.5462640  70.5884280  12.6120440  21.2468730
  68.7146920  29.7553870  17.5708550  69.0744560  30.3543210  16.9165820
  68.5739260  30.3013760  18.3443580  68.4116190  14.0328470  31.0584420
  67.6974710  14.2325390  31.6637030  68.8311230  13.2568040  31.4299220
  68.6988780  28.0208730  32.0450950  68.8079900  27.0803470  31.9046340
  68.0469340  28.2863480  31.3964680  76.6901370  26.2924620  33.4449070
  76.3698240  25.5733860  33.9894760  76.0159730  26.9679690  33.5185130
  74.7315540  27.1385070  18.3882220  74.7225640  27.8714760  17.7726730
  73.8113900  26.8916650  18.4809180  70.3322180  22.3599960  19.1328980
  69.7250130  23.0998860  19.1424280  70.8071530  22.4499320  18.3067180
  75.2401030  17.7593670  21.0331310  74.5317180  18.2280010  21.4744920
  75.5245510  17.1015680  21.6676500  76.3593250  29.7199630  21.7455080
  76.6134750  29.6821020  20.8234450  75.4105730  29.5932960  21.7383330
  73.4436050  16.0678750  18.4082020  74.2926580  16.5048900  18.3422210
  73.0767320  16.3799010  19.2354080  72.3427470  22.3211110  16.8817550
  73.1090740  22.2092470  17.4442980  72.4202160  21.6249080  16.2294320
  71.0374230  19.7536180  17.5650440  71.1177820  18.8063690  17.6767840
  71.9293980  20.0843060  17.6711100  71.8388940  29.9031570  24.6684980
  72.5751420  29.3547030  24.9393550  72.2229860  30.7687580  24.5290970
  68.7234420  25.9705140  20.5426490  67.7974200  26.2126280  20.5331900
  69.1890850  26.7979400  20.4211240  70.8447220  29.0877640  33.8570560
  71.6459950  29.4089690  34.2705960  70.3299040  28.7273220  34.5790470
  74.9491250  29.0761880  16.4910550  75.7419860  29.3650710  16.0392340
  74.4295600  28.6454050  15.8123030  68.5645030  21.5751100  32.8006610
  69.0684050  20.9958380  33.3722840  67.8252450  21.8591330  33.3382980
  75.4668650  24.2965290  16.3552900  75.3619290  23.6817640  17.0814280
  75.2992870  23.7731180  15.5715910  75.6182970  22.9822090  32.3342130
  74.8528640  23.5507090  32.2496800  75.7998930  22.6898300  31.4410360
  70.5968110  19.7180690  33.6956680  70.6373450  19.4194560  34.6041910
  71.4513610  20.1188300  33.5364200  74.3746500  22.3176240  18.8560190
  74.7962920  22.1516110  19.6991580  74.4997340  21.5076470  18.3615330
  72.5373920  18.2972790  31.6631170  72.0070380  17.8063740  31.0354510
  73.2061990  18.7256990  31.1289100  73.0246220  15.2635160  31.7428460
  72.9303090  14.6455910  31.0179330  72.4443610  15.9901450  31.5158370
  75.7907660  13.8208400  28.7755850  75.3424960  13.8432660  27.9301400
  75.1572860  13.4227420  29.3726150  76.1967210  22.7162730  29.3968290
  76.6155320  23.5595460  29.2244530  75.2775840  22.8534770  29.1675070
  73.2705400  18.3909470  15.8018350  73.0694460  17.5276830  16.1631690
  73.0997450  18.3042830  14.8639950  74.0474630  29.0215740  30.5126020
  73.5095720  29.7461800  30.1934720  74.3008590  28.5446080  29.7223360
  75.2999880  16.9900260  32.0381950  75.8899570  16.6816110  32.7259770
  74.4820120  16.5180010  32.1941850  72.0688200  15.4910090  15.7896230
  72.3714100  15.4977520  14.8815380  72.8082790  15.1407950  16.2863890
  76.9036840  30.2566950  30.7712670  76.8295540  31.1602090  31.0785040
  76.0015680  29.9378850  30.7434740  75.2873130  14.4344710  16.7752430
  74.9395130  13.7568700  16.1954880  75.4885900  13.9734220  17.5895820
  71.0918330  24.7952510  16.6226030  71.5293200  25.3382180  17.2783610
  71.5766060  23.9699460  16.6322370  68.3064130  27.5841540  24.0746290
  68.6367140  26.7162600  23.8424930  68.7355130  27.7900060  24.9051250
  72.9026050  25.9150550  21.7348260  72.6021590  25.7915520  22.6352170
  72.7963540  25.0559140  21.3263990  68.7954340  28.4512130  26.8127920
  68.3585330  28.6312930  27.6452070  69.3632020  29.2086750  26.6709640
  68.6278770  20.9632360  23.1716800  67.9727610  20.6944000  22.5276500
  69.4656720  20.8536840  22.7218780  69.6654700  21.3484930  27.7120140
  70.0327740  21.2612330  28.5916160  69.0965520  20.5851480  27.6127000
  69.2170700  18.2594020  31.6178560  68.3226750  18.2260780  31.9572270
  69.7568250  18.4580810  32.3829810  67.8416850  18.1731290  19.1142130
  66.9380930  18.4361490  18.9393790  68.3257470  18.4442460  18.3342090
  70.3844060  17.2296830  17.0236510  71.0935760  16.8080050  16.5383790
  69.6684000  17.2972060  16.3919860  70.0318220  13.2836160  16.0639160
  70.7546350  13.8245100  16.3820380  70.3042740  13.0099580  15.1880700
  69.7210410  12.5342350  25.9661780  70.3686600  11.9839730  25.5256940
  70.1412250  12.7885500  26.7877590  69.4742410  12.6898020  28.7087100
  69.1257230  13.1461840  29.4745280  69.1430110  11.7955150  28.7909530
  71.0806780  25.8617620  32.8740290  71.0376410  25.4910530  33.7554750
  71.2117790  26.7995190  33.0142110  74.7812810  27.4177210  28.4750010
  74.5404170  27.6851770  27.5880530  75.7215450  27.5882940  28.5300870
  70.1463050  12.2174220  31.9837870  70.6946040  12.0362270  31.2203980
  70.2118360  11.4268330  32.5194180  70.9194810  28.8079870  29.9938070
  70.3255130  28.6764570  30.7328110  70.9118650  27.9718010  29.5280170
  70.5507040  26.1738250  28.9446110  69.8241100  25.5543540  28.8772060
  70.6116190  26.5678860  28.0744190  74.1552140  28.3883250  25.7295520
  74.6717160  27.7770610  25.2043780  74.8049520  28.8912030  26.2206530
  68.8337040  29.4912640  22.1542870  68.6659080  28.8583320  22.8524760
  67.9671550  29.6972040  21.8037060  69.4565060  13.3229420  19.6574730
  70.2144420  13.4358300  19.0838760  68.9942230  14.1598620  19.6118160
  75.9978870  15.4368690  22.6477040  75.1853380  15.0625580  22.3072920
  76.5020510  14.6813770  22.9498230  70.4399740  28.1845870  19.5993010
  69.9147360  28.5653900  18.8954970  70.3644320  28.8096640  20.3202720
  71.8290210  13.8493470  18.1976700  72.3582970  13.0623270  18.0684650
  72.4618530  14.5284660  18.4312230  74.0228050  13.5868610  21.2522090
  73.3930790  12.8855920  21.4192220  73.4833190  14.3472740  21.0355250
  74.1483610  12.8652590  33.6874580  73.8667880  13.3686190  32.9235400
  74.5303310  12.0674340  33.3216710  73.0392710  30.1328250  18.4742260
  73.7711530  29.8487530  17.9266150  73.2986380  29.8941530  19.3641640
  72.2007500  26.2492980  18.4788590  71.5716380  26.7178080  19.0274420
  72.3155330  25.4042200  18.9134780  71.8041090  22.3897470   7.3874820
  70.9725970  22.1346180   7.7871330  72.4122070  22.4608240   8.1232740
  71.7842350  26.4237560   7.5832840  72.0870390  25.5335300   7.4043060
  72.5285940  26.9807780   7.3555090  68.1766050  19.9505010   7.0556910
  68.7482160  19.1827210   7.0560550  68.1767590  20.2493770   6.1463520
  69.4190920  15.3589370   8.8425840  69.2393760  14.4615120   9.1228600
  69.0171000  15.9061240   9.5172790  72.3894430  15.9330860   2.2055590
  72.4961180  16.8334590   2.5124350  71.4786790  15.8848830   1.9150240
  70.0377590  17.8549870   7.4508180  70.7187700  18.1188240   8.0695580
  69.7225640  17.0150740   7.7846190  74.2302160  18.9017230   6.5380770
  74.7380380  19.3998200   7.1785790  74.7615400  18.1252430   6.3620130
  72.5138260  13.5415790  10.8044190  72.5156700  14.0588180   9.9990090
  71.6842570  13.0645970  10.7814120  73.7641110  23.1810970   8.9817690
  73.4310490  23.8079890   9.6238760  73.9407790  23.7072850   8.2019360
  72.1953590  15.2525750   8.8114640  72.5370400  16.0967800   8.5168510
  71.2569400  15.4009490   8.9279980  72.9760210  25.1491770  10.7966870
  73.5934210  25.8242850  10.5151320  72.1153330  25.5579750  10.7054370
  75.8781480  12.7408020   5.1359230  76.1856460  12.1854910   4.4194730
  74.9482180  12.8752480   4.9532220  73.8718880  21.3321590   4.6539080
  73.4675880  20.6198840   4.1584980  73.9582000  20.9874830   5.5427120
  74.3400580  25.0189150   6.8178290  74.0428870  24.4134620   6.1386070
  75.2900400  25.0566460   6.7067650  72.5847500  18.1064800   8.4338120
  73.1362090  18.2160140   7.6591370  73.0991010  18.4802400   9.1493350
  73.4319010  24.7570840  13.4686090  72.5347540  24.9810810  13.7159490
  73.4571880  24.8805780  12.5197490  72.2590230  21.6284160  12.0443460
  72.1198000  22.5006960  12.4130860  71.3771590  21.2856970  11.8991400
  74.0570580  27.5705860  14.2528610  74.0286010  27.9748810  13.3857040
  73.8935550  26.6416220  14.0900210  70.5723510  20.2266570   2.1545730
  70.4521110  20.9528660   1.5427000  70.2624400  19.4569480   1.6773640
  68.2108880  23.3981710   7.9614370  68.2889300  23.5330480   7.0170090
  68.8250560  22.6897600   8.1542490  69.4556510  25.0981900   4.3720550
  69.0484590  25.2396490   3.5174150  70.3469520  24.8142060   4.1691760
  73.7278170  29.3127680   2.4843220  73.5520650  28.3963220   2.2711020
  72.8733910  29.6714970   2.7241020  68.2668400  24.4395880  10.5008830
  68.4299440  23.9701240   9.6828200  68.7320850  23.9319440  11.1657670
  73.0387170  13.5701640   5.5369400  72.5955320  14.3511180   5.2053920
  73.5972160  13.8931530   6.2440340  75.0763070  14.1148970   7.3959000
  75.3735400  15.0211800   7.3151020  75.6248630  13.6267750   6.7818570
  72.8301390  18.6935210   3.2650650  72.6042310  18.4772380   4.1697270
  72.0493920  19.1263670   2.9196620  75.2700600  19.5920790  13.9310920
  75.1744200  18.6515520  13.7811320  76.1132580  19.8135860  13.5358990
  70.4011140  16.0034460  12.0844700  70.0074530  16.8509670  12.2917480
  69.7129540  15.3660830  12.2753340  67.7028190  13.9262920   6.1174780
  67.4141240  14.4965780   6.8299760  68.4473950  13.4467370   6.4806010
  75.6896550  16.6022070   6.3947850  75.6932610  16.1612020   5.5452390
  76.5847670  16.9239400   6.5019670  71.5398930  16.4848560   5.3542060
  71.1998980  16.9623790   6.1109110  70.7776250  16.0313680   4.9943160
  69.8407380  23.8147310  12.6604640  69.4562170  23.1740980  13.2587600
  70.1519570  24.5183430  13.2299370  75.9904520  20.6623850   8.1413260
  76.3574650  20.1882420   8.8874600  75.8009580  21.5365420   8.4821600
  68.8545010  15.4067540   4.2706730  68.5691930  15.0423210   5.1085350
  68.7923870  14.6748000   3.6569870  73.7803890  19.7032490  10.4597470
  73.4760960  20.5824470  10.6847830  74.7350350  19.7632280  10.4954910
  72.3523080  23.5773860   4.6943130  72.8701750  22.7742120   4.6400020
  71.9007100  23.5153000   5.5359960  69.8367620  20.5435230  11.6068830
  69.4782560  21.2089080  12.1942170  69.5422180  19.7118780  11.9781450
  73.0380740  21.0019470  14.4908380  72.7380880  21.1476650  13.5936200
  73.8091980  20.4424760  14.3981770  76.2083270  24.9253670   2.7386350
  76.8954400  25.4722880   3.1193940  75.4215690  25.4694400   2.7735960
  75.5110480  21.9299700   2.3511710  75.9673260  22.7404950   2.5771900
  75.1598690  21.6122840   3.1830200  71.4122260  12.2737350   2.8234230
  71.2836890  12.2655250   3.7719150  70.5884280  12.6120440   2.4725240
  68.4116190  14.0328470  12.2840930  67.6974710  14.2325390  12.8893540
  68.8311230  13.2568040  12.6555730  68.6988780  28.0208730  13.2707460
  68.8079900  27.0803470  13.1302850  68.0469340  28.2863480  12.6221190
  76.6901370  26.2924620  14.6705580  76.3698240  25.5733860  15.2151270
  76.0159730  26.9679690  14.7441640  75.2401030  17.7593670   2.2587820
  74.5317180  18.2280010   2.7001430  75.5245510  17.1015680   2.8933010
  76.3593250  29.7199630   2.9711590  76.6134750  29.6821020   2.0490960
  75.4105730  29.5932960   2.9639840  71.8388940  29.9031570   5.8941490
  72.5751420  29.3547030   6.1650060  72.2229860  30.7687580   5.7547480
  68.7234420  25.9705140   1.7683000  67.7974200  26.2126280   1.7588410
  69.1890850  26.7979400   1.6467750  70.8447220  29.0877640  15.0827070
  71.6459950  29.4089690  15.4962470  70.3299040  28.7273220  15.8046980
  68.5645030  21.5751100  14.0263120  69.0684050  20.9958380  14.5979350
  67.8252450  21.8591330  14.5639490  75.6182970  22.9822090  13.5598640
  74.8528640  23.5507090  13.4753310  75.7998930  22.6898300  12.6666870
  70.5968110  19.7180690  14.9213190  70.6373450  19.4194560  15.8298420
  71.4513610  20.1188300  14.7620710  72.5373920  18.2972790  12.8887680
  72.0070380  17.8063740  12.2611020  73.2061990  18.7256990  12.3545610
  73.0246220  15.2635160  12.9684970  72.9303090  14.6455910  12.2435840
  72.4443610  15.9901450  12.7414880  75.7907660  13.8208400  10.0012360
  75.3424960  13.8432660   9.1557910  75.1572860  13.4227420  10.5982660
  76.1967210  22.7162730  10.6224800  76.6155320  23.5595460  10.4501040
  75.2775840  22.8534770  10.3931580  74.0474630  29.0215740  11.7382530
  73.5095720  29.7461800  11.4191230  74.3008590  28.5446080  10.9479870
  75.2999880  16.9900260  13.2638460  75.8899570  16.6816110  13.9516280
  74.4820120  16.5180010  13.4198360  76.9036840  30.2566950  11.9969180
  76.8295540  31.1602090  12.3041550  76.0015680  29.9378850  11.9691250
  68.3064130  27.5841540   5.3002800  68.6367140  26.7162600   5.0681440
  68.7355130  27.7900060   6.1307760  72.9026050  25.9150550   2.9604770
  72.6021590  25.7915520   3.8608680  72.7963540  25.0559140   2.5520500
  68.7954340  28.4512130   8.0384430  68.3585330  28.6312930   8.8708580
  69.3632020  29.2086750   7.8966150  68.6278770  20.9632360   4.3973310
  67.9727610  20.6944000   3.7533010  69.4656720  20.8536840   3.9475290
  69.6654700  21.3484930   8.9376650  70.0327740  21.2612330   9.8172670
  69.0965520  20.5851480   8.8383510  69.2170700  18.2594020  12.8435070
  68.3226750  18.2260780  13.1828780  69.7568250  18.4580810  13.6086320
  69.7210410  12.5342350   7.1918290  70.3686600  11.9839730   6.7513450
  70.1412250  12.7885500   8.0134100  69.4742410  12.6898020   9.9343610
  69.1257230  13.1461840  10.7001790  69.1430110  11.7955150  10.0166040
  71.0806780  25.8617620  14.0996800  71.0376410  25.4910530  14.9811260
  71.2117790  26.7995190  14.2398620  74.7812810  27.4177210   9.7006520
  74.5404170  27.6851770   8.8137040  75.7215450  27.5882940   9.7557380
  70.1463050  12.2174220  13.2094380  70.6946040  12.0362270  12.4460490
  70.2118360  11.4268330  13.7450690  70.9194810  28.8079870  11.2194580
  70.3255130  28.6764570  11.9584620  70.9118650  27.9718010  10.7536680
  70.5507040  26.1738250  10.1702620  69.8241100  25.5543540  10.1028570
  70.6116190  26.5678860   9.3000700  74.1552140  28.3883250   6.9552030
  74.6717160  27.7770610   6.4300290  74.8049520  28.8912030   7.4463040
  68.8337040  29.4912640   3.3799380  68.6659080  28.8583320   4.0781270
  67.9671550  29.6972040   3.0293570  75.9978870  15.4368690   3.8733550
  75.1853380  15.0625580   3.5329430  76.5020510  14.6813770   4.1754740
  74.0228050  13.5868610   2.4778600  73.3930790  12.8855920   2.6448730
  73.4833190  14.3472740   2.2611760  74.1483610  12.8652590  14.9131090
  73.8667880  13.3686190  14.1491910  74.5303310  12.0674340  14.5473220
  71.8041090   3.6153980  82.4848780  70.9725970   3.3602690  82.8845290
  72.4122070   3.6864750  83.2206700  71.7842350   7.6494070  82.6806800
  72.0870390   6.7591810  82.5017020  72.5285940   8.2064290  82.4529050
  73.7641110   4.4067480  84.0791650  73.4310490   5.0336400  84.7212720
  73.9407790   4.9329360  83.2993320  72.9760210   6.3748280  85.8940830
  73.5934210   7.0499360  85.6125280  72.1153330   6.7836260  85.8028330
  68.2692550   5.5648140  74.7747680  67.8920530   6.0535240  74.0432580
  68.5265620   6.2373420  75.4054210  73.8718880   2.5578100  79.7513040
  73.4675880   1.8455350  79.2558940  73.9582000   2.2131340  80.6401080
  74.3400580   6.2445660  81.9152250  74.0428870   5.6391130  81.2360030
  75.2900400   6.2822970  81.8041610  68.2108880   4.6238220  83.0588330
  68.2889300   4.7586990  82.1144050  68.8250560   3.9154110  83.2516450
  69.4556510   6.3238410  79.4694510  69.0484590   6.4653000  78.6148110
  70.3469520   6.0398570  79.2665720  73.7278170  10.5384190  77.5817180
  73.5520650   9.6219730  77.3684980  72.8733910  10.8971480  77.8214980
  68.2668400   5.6652390  85.5982790  68.4299440   5.1957750  84.7802160
  68.7320850   5.1575950  86.2631630  72.3085680   5.1349990  76.1538280
  71.5347940   4.5947610  75.9937000  73.0380310   4.6156600  75.8156040
  72.3523080   4.8030370  79.7917090  72.8701750   3.9998630  79.7373980
  71.9007100   4.7409510  80.6333920  76.2083270   6.1510180  77.8360310
  76.8954400   6.6979390  78.2167900  75.4215690   6.6950910  77.8709920
  68.3475670   1.7683000  73.3277390  69.2170520   2.0507800  73.6113310
  67.8565990   2.5818870  73.2126200  75.5110480   3.1556210  77.4485670
  75.9673260   3.9661460  77.6745860  75.1598690   2.8379350  78.2804160
  68.7146920  10.9810380  73.8939020  69.0744560  11.5799720  73.2396290
  68.5739260  11.5270270  74.6674050  74.7315540   8.3641580  74.7112690
  74.7225640   9.0971270  74.0957200  73.8113900   8.1173160  74.8039650
  70.3322180   3.5856470  75.4559450  69.7250130   4.3255370  75.4654750
  70.8071530   3.6755830  74.6297650  76.3593250  10.9456140  78.0685550
  76.6134750  10.9077530  77.1464920  75.4105730  10.8189470  78.0613800
  72.3427470   3.5467620  73.2048020  73.1090740   3.4348980  73.7673450
  72.4202160   2.8505590  72.5524790  71.8388940  11.1288080  80.9915450
  72.5751420  10.5803540  81.2624020  72.2229860  11.9944090  80.8521440
  68.7234420   7.1961650  76.8656960  67.7974200   7.4382790  76.8562370
  69.1890850   8.0235910  76.7441710  74.9491250  10.3018390  72.8141020
  75.7419860  10.5907220  72.3622810  74.4295600   9.8710560  72.1353500
  75.4668650   5.5221800  72.6783370  75.3619290   4.9074150  73.4044750
  75.2992870   4.9987690  71.8946380  74.3746500   3.5432750  75.1790660
  74.7962920   3.3772620  76.0222050  74.4997340   2.7332980  74.6845800
  76.1967210   3.9419240  85.7198760  76.6155320   4.7851970  85.5475000
  75.2775840   4.0791280  85.4905540  71.0918330   6.0209020  72.9456500
  71.5293200   6.5638690  73.6014080  71.5766060   5.1955970  72.9552840
  68.3064130   8.8098050  80.3976760  68.6367140   7.9419110  80.1655400
  68.7355130   9.0156570  81.2281720  72.9026050   7.1407060  78.0578730
  72.6021590   7.0172030  78.9582640  72.7963540   6.2815650  77.6494460
  68.7954340   9.6768640  83.1358390  68.3585330   9.8569440  83.9682540
  69.3632020  10.4343260  82.9940110  68.6278770   2.1888870  79.4947270
  67.9727610   1.9200510  78.8506970  69.4656720   2.0793350  79.0449250
  69.6654700   2.5741440  84.0350610  70.0327740   2.4868840  84.9146630
  69.0965520   1.8107990  83.9357470  74.7812810   8.6433720  84.7980480
  74.5404170   8.9108280  83.9111000  75.7215450   8.8139450  84.8531340
  70.5507040   7.3994760  85.2676580  69.8241100   6.7800050  85.2002530
  70.6116190   7.7935370  84.3974660  74.1552140   9.6139760  82.0525990
  74.6717160   9.0027120  81.5274250  74.8049520  10.1168540  82.5437000
  68.8337040  10.7169150  78.4773340  68.6659080  10.0839830  79.1755230
  67.9671550  10.9228550  78.1267530  70.4399740   9.4102380  75.9223480
  69.9147360   9.7910410  75.2185440  70.3644320  10.0353150  76.6433190
  73.0392710  11.3584760  74.7972730  73.7711530  11.0744040  74.2496620
  73.2986380  11.1198040  75.6872110  72.2007500   7.4749490  74.8019060
  71.5716380   7.9434590  75.3504890  72.3155330   6.6298710  75.2365250
  71.8041090   3.6153980  63.7105290  70.9725970   3.3602690  64.1101800
  72.4122070   3.6864750  64.4463210  71.7842350   7.6494070  63.9063310
  72.0870390   6.7591810  63.7273530  72.5285940   8.2064290  63.6785560
  73.7641110   4.4067480  65.3048160  73.4310490   5.0336400  65.9469230
  73.9407790   4.9329360  64.5249830  72.9760210   6.3748280  67.1197340
  73.5934210   7.0499360  66.8381790  72.1153330   6.7836260  67.0284840
  68.2692550   5.5648140  56.0004190  67.8920530   6.0535240  55.2689090
  68.5265620   6.2373420  56.6310720  73.8718880   2.5578100  60.9769550
  73.4675880   1.8455350  60.4815450  73.9582000   2.2131340  61.8657590
  74.3400580   6.2445660  63.1408760  74.0428870   5.6391130  62.4616540
  75.2900400   6.2822970  63.0298120  73.4319010   5.9827350  69.7916560
  72.5347540   6.2067320  70.0389960  73.4571880   6.1062290  68.8427960
  72.2590230   2.8540670  68.3673930  72.1198000   3.7263470  68.7361330
  71.3771590   2.5113480  68.2221870  74.0570580   8.7962370  70.5759080
  74.0286010   9.2005320  69.7087510  73.8935550   7.8672730  70.4130680
  68.2108880   4.6238220  64.2844840  68.2889300   4.7586990  63.3400560
  68.8250560   3.9154110  64.4772960  69.4556510   6.3238410  60.6951020
  69.0484590   6.4653000  59.8404620  70.3469520   6.0398570  60.4922230
  73.7278170  10.5384190  58.8073690  73.5520650   9.6219730  58.5941490
  72.8733910  10.8971480  59.0471490  68.2668400   5.6652390  66.8239300
  68.4299440   5.1957750  66.0058670  68.7320850   5.1575950  67.4888140
  69.8407380   5.0403820  68.9835110  69.4562170   4.3997490  69.5818070
  70.1519570   5.7439940  69.5529840  72.3085680   5.1349990  57.3794790
  71.5347940   4.5947610  57.2193510  73.0380310   4.6156600  57.0412550
  72.3523080   4.8030370  61.0173600  72.8701750   3.9998630  60.9630490
  71.9007100   4.7409510  61.8590430  73.0380740   2.2275980  70.8138850
  72.7380880   2.3733160  69.9166670  73.8091980   1.6681270  70.7212240
  76.2083270   6.1510180  59.0616820  76.8954400   6.6979390  59.4424410
  75.4215690   6.6950910  59.0966430  68.3475670   1.7683000  54.5533900
  69.2170520   2.0507800  54.8369820  67.8565990   2.5818870  54.4382710
  75.5110480   3.1556210  58.6742180  75.9673260   3.9661460  58.9002370
  75.1598690   2.8379350  59.5060670  68.7146920  10.9810380  55.1195530
  69.0744560  11.5799720  54.4652800  68.5739260  11.5270270  55.8930560
  68.6988780   9.2465240  69.5937930  68.8079900   8.3059980  69.4533320
  68.0469340   9.5119990  68.9451660  76.6901370   7.5181130  70.9936050
  76.3698240   6.7990370  71.5381740  76.0159730   8.1936200  71.0672110
  74.7315540   8.3641580  55.9369200  74.7225640   9.0971270  55.3213710
  73.8113900   8.1173160  56.0296160  70.3322180   3.5856470  56.6815960
  69.7250130   4.3255370  56.6911260  70.8071530   3.6755830  55.8554160
  76.3593250  10.9456140  59.2942060  76.6134750  10.9077530  58.3721430
  75.4105730  10.8189470  59.2870310  72.3427470   3.5467620  54.4304530
  73.1090740   3.4348980  54.9929960  72.4202160   2.8505590  53.7781300
  71.8388940  11.1288080  62.2171960  72.5751420  10.5803540  62.4880530
  72.2229860  11.9944090  62.0777950  68.7234420   7.1961650  58.0913470
  67.7974200   7.4382790  58.0818880  69.1890850   8.0235910  57.9698220
  70.8447220  10.3134150  71.4057540  71.6459950  10.6346200  71.8192940
  70.3299040   9.9529730  72.1277450  74.9491250  10.3018390  54.0397530
  75.7419860  10.5907220  53.5879320  74.4295600   9.8710560  53.3610010
  68.5645030   2.8007610  70.3493590  69.0684050   2.2214890  70.9209820
  67.8252450   3.0847840  70.8869960  75.4668650   5.5221800  53.9039880
  75.3619290   4.9074150  54.6301260  75.2992870   4.9987690  53.1202890
  75.6182970   4.2078600  69.8829110  74.8528640   4.7763600  69.7983780
  75.7998930   3.9154810  68.9897340  74.3746500   3.5432750  56.4047170
  74.7962920   3.3772620  57.2478560  74.4997340   2.7332980  55.9102310
  76.1967210   3.9419240  66.9455270  76.6155320   4.7851970  66.7731510
  75.2775840   4.0791280  66.7162050  74.0474630  10.2472250  68.0613000
  73.5095720  10.9718310  67.7421700  74.3008590   9.7702590  67.2710340
  76.9036840  11.4823460  68.3199650  76.8295540  12.3858600  68.6272020
  76.0015680  11.1635360  68.2921720  71.0918330   6.0209020  54.1713010
  71.5293200   6.5638690  54.8270590  71.5766060   5.1955970  54.1809350
  68.3064130   8.8098050  61.6233270  68.6367140   7.9419110  61.3911910
  68.7355130   9.0156570  62.4538230  72.9026050   7.1407060  59.2835240
  72.6021590   7.0172030  60.1839150  72.7963540   6.2815650  58.8750970
  68.7954340   9.6768640  64.3614900  68.3585330   9.8569440  65.1939050
  69.3632020  10.4343260  64.2196620  68.6278770   2.1888870  60.7203780
  67.9727610   1.9200510  60.0763480  69.4656720   2.0793350  60.2705760
  69.6654700   2.5741440  65.2607120  70.0327740   2.4868840  66.1403140
  69.0965520   1.8107990  65.1613980  71.0806780   7.0874130  70.4227270
  71.0376410   6.7167040  71.3041730  71.2117790   8.0251700  70.5629090
  74.7812810   8.6433720  66.0236990  74.5404170   8.9108280  65.1367510
  75.7215450   8.8139450  66.0787850  70.9194810  10.0336380  67.5425050
  70.3255130   9.9021080  68.2815090  70.9118650   9.1974520  67.0767150
  70.5507040   7.3994760  66.4933090  69.8241100   6.7800050  66.4259040
  70.6116190   7.7935370  65.6231170  74.1552140   9.6139760  63.2782500
  74.6717160   9.0027120  62.7530760  74.8049520  10.1168540  63.7693510
  68.8337040  10.7169150  59.7029850  68.6659080  10.0839830  60.4011740
  67.9671550  10.9228550  59.3524040  70.4399740   9.4102380  57.1479990
  69.9147360   9.7910410  56.4441950  70.3644320  10.0353150  57.8689700
  73.0392710  11.3584760  56.0229240  73.7711530  11.0744040  55.4753130
  73.2986380  11.1198040  56.9128620  72.2007500   7.4749490  56.0275570
  71.5716380   7.9434590  56.5761400  72.3155330   6.6298710  56.4621760
  71.8041090   3.6153980  44.9361800  70.9725970   3.3602690  45.3358310
  72.4122070   3.6864750  45.6719720  71.7842350   7.6494070  45.1319820
  72.0870390   6.7591810  44.9530040  72.5285940   8.2064290  44.9042070
  73.7641110   4.4067480  46.5304670  73.4310490   5.0336400  47.1725740
  73.9407790   4.9329360  45.7506340  72.9760210   6.3748280  48.3453850
  73.5934210   7.0499360  48.0638300  72.1153330   6.7836260  48.2541350
  68.2692550   5.5648140  37.2260700  67.8920530   6.0535240  36.4945600
  68.5265620   6.2373420  37.8567230  73.8718880   2.5578100  42.2026060
  73.4675880   1.8455350  41.7071960  73.9582000   2.2131340  43.0914100
  74.3400580   6.2445660  44.3665270  74.0428870   5.6391130  43.6873050
  75.2900400   6.2822970  44.2554630  73.4319010   5.9827350  51.0173070
  72.5347540   6.2067320  51.2646470  73.4571880   6.1062290  50.0684470
  72.2590230   2.8540670  49.5930440  72.1198000   3.7263470  49.9617840
  71.3771590   2.5113480  49.4478380  74.0570580   8.7962370  51.8015590
  74.0286010   9.2005320  50.9344020  73.8935550   7.8672730  51.6387190
  68.2108880   4.6238220  45.5101350  68.2889300   4.7586990  44.5657070
  68.8250560   3.9154110  45.7029470  69.4556510   6.3238410  41.9207530
  69.0484590   6.4653000  41.0661130  70.3469520   6.0398570  41.7178740
  73.7278170  10.5384190  40.0330200  73.5520650   9.6219730  39.8198000
  72.8733910  10.8971480  40.2728000  68.2668400   5.6652390  48.0495810
  68.4299440   5.1957750  47.2315180  68.7320850   5.1575950  48.7144650
  69.8407380   5.0403820  50.2091620  69.4562170   4.3997490  50.8074580
  70.1519570   5.7439940  50.7786350  72.3085680   5.1349990  38.6051300
  71.5347940   4.5947610  38.4450020  73.0380310   4.6156600  38.2669060
  72.3523080   4.8030370  42.2430110  72.8701750   3.9998630  42.1887000
  71.9007100   4.7409510  43.0846940  73.0380740   2.2275980  52.0395360
  72.7380880   2.3733160  51.1423180  73.8091980   1.6681270  51.9468750
  76.2083270   6.1510180  40.2873330  76.8954400   6.6979390  40.6680920
  75.4215690   6.6950910  40.3222940  68.3475670   1.7683000  35.7790410
  69.2170520   2.0507800  36.0626330  67.8565990   2.5818870  35.6639220
  75.5110480   3.1556210  39.8998690  75.9673260   3.9661460  40.1258880
  75.1598690   2.8379350  40.7317180  68.7146920  10.9810380  36.3452040
  69.0744560  11.5799720  35.6909310  68.5739260  11.5270270  37.1187070
  68.6988780   9.2465240  50.8194440  68.8079900   8.3059980  50.6789830
  68.0469340   9.5119990  50.1708170  76.6901370   7.5181130  52.2192560
  76.3698240   6.7990370  52.7638250  76.0159730   8.1936200  52.2928620
  74.7315540   8.3641580  37.1625710  74.7225640   9.0971270  36.5470220
  73.8113900   8.1173160  37.2552670  70.3322180   3.5856470  37.9072470
  69.7250130   4.3255370  37.9167770  70.8071530   3.6755830  37.0810670
  76.3593250  10.9456140  40.5198570  76.6134750  10.9077530  39.5977940
  75.4105730  10.8189470  40.5126820  72.3427470   3.5467620  35.6561040
  73.1090740   3.4348980  36.2186470  72.4202160   2.8505590  35.0037810
  71.8388940  11.1288080  43.4428470  72.5751420  10.5803540  43.7137040
  72.2229860  11.9944090  43.3034460  68.7234420   7.1961650  39.3169980
  67.7974200   7.4382790  39.3075390  69.1890850   8.0235910  39.1954730
  70.8447220  10.3134150  52.6314050  71.6459950  10.6346200  53.0449450
  70.3299040   9.9529730  53.3533960  74.9491250  10.3018390  35.2654040
  75.7419860  10.5907220  34.8135830  74.4295600   9.8710560  34.5866520
  68.5645030   2.8007610  51.5750100  69.0684050   2.2214890  52.1466330
  67.8252450   3.0847840  52.1126470  75.4668650   5.5221800  35.1296390
  75.3619290   4.9074150  35.8557770  75.2992870   4.9987690  34.3459400
  75.6182970   4.2078600  51.1085620  74.8528640   4.7763600  51.0240290
  75.7998930   3.9154810  50.2153850  74.3746500   3.5432750  37.6303680
  74.7962920   3.3772620  38.4735070  74.4997340   2.7332980  37.1358820
  76.1967210   3.9419240  48.1711780  76.6155320   4.7851970  47.9988020
  75.2775840   4.0791280  47.9418560  74.0474630  10.2472250  49.2869510
  73.5095720  10.9718310  48.9678210  74.3008590   9.7702590  48.4966850
  76.9036840  11.4823460  49.5456160  76.8295540  12.3858600  49.8528530
  76.0015680  11.1635360  49.5178230  71.0918330   6.0209020  35.3969520
  71.5293200   6.5638690  36.0527100  71.5766060   5.1955970  35.4065860
  68.3064130   8.8098050  42.8489780  68.6367140   7.9419110  42.6168420
  68.7355130   9.0156570  43.6794740  72.9026050   7.1407060  40.5091750
  72.6021590   7.0172030  41.4095660  72.7963540   6.2815650  40.1007480
  68.7954340   9.6768640  45.5871410  68.3585330   9.8569440  46.4195560
  69.3632020  10.4343260  45.4453130  68.6278770   2.1888870  41.9460290
  67.9727610   1.9200510  41.3019990  69.4656720   2.0793350  41.4962270
  69.6654700   2.5741440  46.4863630  70.0327740   2.4868840  47.3659650
  69.0965520   1.8107990  46.3870490  71.0806780   7.0874130  51.6483780
  71.0376410   6.7167040  52.5298240  71.2117790   8.0251700  51.7885600
  74.7812810   8.6433720  47.2493500  74.5404170   8.9108280  46.3624020
  75.7215450   8.8139450  47.3044360  70.9194810  10.0336380  48.7681560
  70.3255130   9.9021080  49.5071600  70.9118650   9.1974520  48.3023660
  70.5507040   7.3994760  47.7189600  69.8241100   6.7800050  47.6515550
  70.6116190   7.7935370  46.8487680  74.1552140   9.6139760  44.5039010
  74.6717160   9.0027120  43.9787270  74.8049520  10.1168540  44.9950020
  68.8337040  10.7169150  40.9286360  68.6659080  10.0839830  41.6268250
  67.9671550  10.9228550  40.5780550  70.4399740   9.4102380  38.3736500
  69.9147360   9.7910410  37.6698460  70.3644320  10.0353150  39.0946210
  73.0392710  11.3584760  37.2485750  73.7711530  11.0744040  36.7009640
  73.2986380  11.1198040  38.1385130  72.2007500   7.4749490  37.2532080
  71.5716380   7.9434590  37.8017910  72.3155330   6.6298710  37.6878270
  71.8041090   3.6153980  26.1618310  70.9725970   3.3602690  26.5614820
  72.4122070   3.6864750  26.8976230  71.7842350   7.6494070  26.3576330
  72.0870390   6.7591810  26.1786550  72.5285940   8.2064290  26.1298580
  73.7641110   4.4067480  27.7561180  73.4310490   5.0336400  28.3982250
  73.9407790   4.9329360  26.9762850  72.9760210   6.3748280  29.5710360
  73.5934210   7.0499360  29.2894810  72.1153330   6.7836260  29.4797860
  68.2692550   5.5648140  18.4517210  67.8920530   6.0535240  17.7202110
  68.5265620   6.2373420  19.0823740  73.8718880   2.5578100  23.4282570
  73.4675880   1.8455350  22.9328470  73.9582000   2.2131340  24.3170610
  74.3400580   6.2445660  25.5921780  74.0428870   5.6391130  24.9129560
  75.2900400   6.2822970  25.4811140  73.4319010   5.9827350  32.2429580
  72.5347540   6.2067320  32.4902980  73.4571880   6.1062290  31.2940980
  72.2590230   2.8540670  30.8186950  72.1198000   3.7263470  31.1874350
  71.3771590   2.5113480  30.6734890  74.0570580   8.7962370  33.0272100
  74.0286010   9.2005320  32.1600530  73.8935550   7.8672730  32.8643700
  68.2108880   4.6238220  26.7357860  68.2889300   4.7586990  25.7913580
  68.8250560   3.9154110  26.9285980  69.4556510   6.3238410  23.1464040
  69.0484590   6.4653000  22.2917640  70.3469520   6.0398570  22.9435250
  73.7278170  10.5384190  21.2586710  73.5520650   9.6219730  21.0454510
  72.8733910  10.8971480  21.4984510  68.2668400   5.6652390  29.2752320
  68.4299440   5.1957750  28.4571690  68.7320850   5.1575950  29.9401160
  69.8407380   5.0403820  31.4348130  69.4562170   4.3997490  32.0331090
  70.1519570   5.7439940  32.0042860  72.3085680   5.1349990  19.8307810
  71.5347940   4.5947610  19.6706530  73.0380310   4.6156600  19.4925570
  72.3523080   4.8030370  23.4686620  72.8701750   3.9998630  23.4143510
  71.9007100   4.7409510  24.3103450  73.0380740   2.2275980  33.2651870
  72.7380880   2.3733160  32.3679690  73.8091980   1.6681270  33.1725260
  76.2083270   6.1510180  21.5129840  76.8954400   6.6979390  21.8937430
  75.4215690   6.6950910  21.5479450  68.3475670   1.7683000  17.0046920
  69.2170520   2.0507800  17.2882840  67.8565990   2.5818870  16.8895730
  75.5110480   3.1556210  21.1255200  75.9673260   3.9661460  21.3515390
  75.1598690   2.8379350  21.9573690  68.7146920  10.9810380  17.5708550
  69.0744560  11.5799720  16.9165820  68.5739260  11.5270270  18.3443580
  68.6988780   9.2465240  32.0450950  68.8079900   8.3059980  31.9046340
  68.0469340   9.5119990  31.3964680  76.6901370   7.5181130  33.4449070
  76.3698240   6.7990370  33.9894760  76.0159730   8.1936200  33.5185130
  74.7315540   8.3641580  18.3882220  74.7225640   9.0971270  17.7726730
  73.8113900   8.1173160  18.4809180  70.3322180   3.5856470  19.1328980
  69.7250130   4.3255370  19.1424280  70.8071530   3.6755830  18.3067180
  76.3593250  10.9456140  21.7455080  76.6134750  10.9077530  20.8234450
  75.4105730  10.8189470  21.7383330  72.3427470   3.5467620  16.8817550
  73.1090740   3.4348980  17.4442980  72.4202160   2.8505590  16.2294320
  71.8388940  11.1288080  24.6684980  72.5751420  10.5803540  24.9393550
  72.2229860  11.9944090  24.5290970  68.7234420   7.1961650  20.5426490
  67.7974200   7.4382790  20.5331900  69.1890850   8.0235910  20.4211240
  70.8447220  10.3134150  33.8570560  71.6459950  10.6346200  34.2705960
  70.3299040   9.9529730  34.5790470  74.9491250  10.3018390  16.4910550
  75.7419860  10.5907220  16.0392340  74.4295600   9.8710560  15.8123030
  68.5645030   2.8007610  32.8006610  69.0684050   2.2214890  33.3722840
  67.8252450   3.0847840  33.3382980  75.4668650   5.5221800  16.3552900
  75.3619290   4.9074150  17.0814280  75.2992870   4.9987690  15.5715910
  75.6182970   4.2078600  32.3342130  74.8528640   4.7763600  32.2496800
  75.7998930   3.9154810  31.4410360  74.3746500   3.5432750  18.8560190
  74.7962920   3.3772620  19.6991580  74.4997340   2.7332980  18.3615330
  76.1967210   3.9419240  29.3968290  76.6155320   4.7851970  29.2244530
  75.2775840   4.0791280  29.1675070  74.0474630  10.2472250  30.5126020
  73.5095720  10.9718310  30.1934720  74.3008590   9.7702590  29.7223360
  76.9036840  11.4823460  30.7712670  76.8295540  12.3858600  31.0785040
  76.0015680  11.1635360  30.7434740  71.0918330   6.0209020  16.6226030
  71.5293200   6.5638690  17.2783610  71.5766060   5.1955970  16.6322370
  68.3064130   8.8098050  24.0746290  68.6367140   7.9419110  23.8424930
  68.7355130   9.0156570  24.9051250  72.9026050   7.1407060  21.7348260
  72.6021590   7.0172030  22.6352170  72.7963540   6.2815650  21.3263990
  68.7954340   9.6768640  26.8127920  68.3585330   9.8569440  27.6452070
  69.3632020  10.4343260  26.6709640  68.6278770   2.1888870  23.1716800
  67.9727610   1.9200510  22.5276500  69.4656720   2.0793350  22.7218780
  69.6654700   2.5741440  27.7120140  70.0327740   2.4868840  28.5916160
  69.0965520   1.8107990  27.6127000  71.0806780   7.0874130  32.8740290
  71.0376410   6.7167040  33.7554750  71.2117790   8.0251700  33.0142110
  74.7812810   8.6433720  28.4750010  74.5404170   8.9108280  27.5880530
  75.7215450   8.8139450  28.5300870  70.9194810  10.0336380  29.9938070
  70.3255130   9.9021080  30.7328110  70.9118650   9.1974520  29.5280170
  70.5507040   7.3994760  28.9446110  69.8241100   6.7800050  28.8772060
  70.6116190   7.7935370  28.0744190  74.1552140   9.6139760  25.7295520
  74.6717160   9.0027120  25.2043780  74.8049520  10.1168540  26.2206530
  68.8337040  10.7169150  22.1542870  68.6659080  10.0839830  22.8524760
  67.9671550  10.9228550  21.8037060  70.4399740   9.4102380  19.5993010
  69.9147360   9.7910410  18.8954970  70.3644320  10.0353150  20.3202720
  73.0392710  11.3584760  18.4742260  73.7711530  11.0744040  17.9266150
  73.2986380  11.1198040  19.3641640  72.2007500   7.4749490  18.4788590
  71.5716380   7.9434590  19.0274420  72.3155330   6.6298710  18.9134780
  71.8041090   3.6153980   7.3874820  70.9725970   3.3602690   7.7871330
  72.4122070   3.6864750   8.1232740  71.7842350   7.6494070   7.5832840
  72.0870390   6.7591810   7.4043060  72.5285940   8.2064290   7.3555090
  73.7641110   4.4067480   8.9817690  73.4310490   5.0336400   9.6238760
  73.9407790   4.9329360   8.2019360  72.9760210   6.3748280  10.7966870
  73.5934210   7.0499360  10.5151320  72.1153330   6.7836260  10.7054370
  73.8718880   2.5578100   4.6539080  73.4675880   1.8455350   4.1584980
  73.9582000   2.2131340   5.5427120  74.3400580   6.2445660   6.8178290
  74.0428870   5.6391130   6.1386070  75.2900400   6.2822970   6.7067650
  73.4319010   5.9827350  13.4686090  72.5347540   6.2067320  13.7159490
  73.4571880   6.1062290  12.5197490  72.2590230   2.8540670  12.0443460
  72.1198000   3.7263470  12.4130860  71.3771590   2.5113480  11.8991400
  74.0570580   8.7962370  14.2528610  74.0286010   9.2005320  13.3857040
  73.8935550   7.8672730  14.0900210  68.2108880   4.6238220   7.9614370
  68.2889300   4.7586990   7.0170090  68.8250560   3.9154110   8.1542490
  69.4556510   6.3238410   4.3720550  69.0484590   6.4653000   3.5174150
  70.3469520   6.0398570   4.1691760  73.7278170  10.5384190   2.4843220
  73.5520650   9.6219730   2.2711020  72.8733910  10.8971480   2.7241020
  68.2668400   5.6652390  10.5008830  68.4299440   5.1957750   9.6828200
  68.7320850   5.1575950  11.1657670  69.8407380   5.0403820  12.6604640
  69.4562170   4.3997490  13.2587600  70.1519570   5.7439940  13.2299370
  72.3523080   4.8030370   4.6943130  72.8701750   3.9998630   4.6400020
  71.9007100   4.7409510   5.5359960  73.0380740   2.2275980  14.4908380
  72.7380880   2.3733160  13.5936200  73.8091980   1.6681270  14.3981770
  76.2083270   6.1510180   2.7386350  76.8954400   6.6979390   3.1193940
  75.4215690   6.6950910   2.7735960  75.5110480   3.1556210   2.3511710
  75.9673260   3.9661460   2.5771900  75.1598690   2.8379350   3.1830200
  68.6988780   9.2465240  13.2707460  68.8079900   8.3059980  13.1302850
  68.0469340   9.5119990  12.6221190  76.6901370   7.5181130  14.6705580
  76.3698240   6.7990370  15.2151270  76.0159730   8.1936200  14.7441640
  76.3593250  10.9456140   2.9711590  76.6134750  10.9077530   2.0490960
  75.4105730  10.8189470   2.9639840  71.8388940  11.1288080   5.8941490
  72.5751420  10.5803540   6.1650060  72.2229860  11.9944090   5.7547480
  68.7234420   7.1961650   1.7683000  67.7974200   7.4382790   1.7588410
  69.1890850   8.0235910   1.6467750  70.8447220  10.3134150  15.0827070
  71.6459950  10.6346200  15.4962470  70.3299040   9.9529730  15.8046980
  68.5645030   2.8007610  14.0263120  69.0684050   2.2214890  14.5979350
  67.8252450   3.0847840  14.5639490  75.6182970   4.2078600  13.5598640
  74.8528640   4.7763600  13.4753310  75.7998930   3.9154810  12.6666870
  76.1967210   3.9419240  10.6224800  76.6155320   4.7851970  10.4501040
  75.2775840   4.0791280  10.3931580  74.0474630  10.2472250  11.7382530
  73.5095720  10.9718310  11.4191230  74.3008590   9.7702590  10.9479870
  76.9036840  11.4823460  11.9969180  76.8295540  12.3858600  12.3041550
  76.0015680  11.1635360  11.9691250  68.3064130   8.8098050   5.3002800
  68.6367140   7.9419110   5.0681440  68.7355130   9.0156570   6.1307760
  72.9026050   7.1407060   2.9604770  72.6021590   7.0172030   3.8608680
  72.7963540   6.2815650   2.5520500  68.7954340   9.6768640   8.0384430
  68.3585330   9.8569440   8.8708580  69.3632020  10.4343260   7.8966150
  68.6278770   2.1888870   4.3973310  67.9727610   1.9200510   3.7533010
  69.4656720   2.0793350   3.9475290  69.6654700   2.5741440   8.9376650
  70.0327740   2.4868840   9.8172670  69.0965520   1.8107990   8.8383510
  71.0806780   7.0874130  14.0996800  71.0376410   6.7167040  14.9811260
  71.2117790   8.0251700  14.2398620  74.7812810   8.6433720   9.7006520
  74.5404170   8.9108280   8.8137040  75.7215450   8.8139450   9.7557380
  70.9194810  10.0336380  11.2194580  70.3255130   9.9021080  11.9584620
  70.9118650   9.1974520  10.7536680  70.5507040   7.3994760  10.1702620
  69.8241100   6.7800050  10.1028570  70.6116190   7.7935370   9.3000700
  74.1552140   9.6139760   6.9552030  74.6717160   9.0027120   6.4300290
  74.8049520  10.1168540   7.4463040  68.8337040  10.7169150   3.3799380
  68.6659080  10.0839830   4.0781270  67.9671550  10.9228550   3.0293570
  60.8813730  76.6229110  79.7263750  60.8007780  75.7083720  79.4555460
  60.4678150  77.1196180  79.0203460  51.4389550  73.6729830  76.2691170
  50.5506250  74.0145800  76.1671050  51.7230740  73.4730150  75.3772000
  49.4022560  76.2735480  82.1530870  49.9738670  75.5057680  82.1534510
  49.4024100  76.5724240  81.2437480  50.6447430  71.6819840  83.9399800
  50.4650270  70.7845590  84.2202560  50.2427510  72.2291710  84.6146750
  59.4845930  73.8835700  81.8412110  59.8610750  73.0107580  81.7285780
  59.3865440  74.2194400  80.9502550  53.6150940  72.2561330  77.3029550
  53.7217690  73.1565060  77.6098310  52.7043300  72.2079300  77.0124200
  63.2670050  71.3786140  78.7740450  64.0879670  70.8882710  78.8165930
  63.3004130  71.9683800  79.5272290  51.2634100  74.1780340  82.5482140
  51.9444210  74.4418710  83.1669540  50.9482150  73.3381210  82.8820150
  55.4558670  75.2247700  81.6354730  55.9636890  75.7228670  82.2759750
  55.9871910  74.4482900  81.4594090  67.5569600  73.3952890  85.3384080
  66.8521770  73.7834600  84.8199190  67.8227520  74.0903180  85.9405010
  53.7394770  69.8646260  85.9018150  53.7413210  70.3818650  85.0964050
  52.9099080  69.3876440  85.8788080  63.5031530  73.3186520  81.5467990
  62.7987100  73.6071410  82.1271100  63.8643690  74.1286630  81.1867550
  53.4210100  71.5756220  83.9088600  53.7626910  72.4198270  83.6142470
  52.4825910  71.7239960  84.0253940  66.5718450  72.7641310  81.9377200
  65.6243360  72.7980290  82.0692630  66.8968440  73.5780260  82.3226560
  57.1037990  69.0638490  80.2333190  57.4112970  68.5085380  79.5168690
  56.1738690  69.1982950  80.0506180  59.4918750  77.1287320  76.9693310
  58.5648030  77.0624700  77.1981780  59.6443570  78.0667450  76.8548550
  59.4787830  73.4004320  73.9660470  58.5391500  73.5618280  74.0512930
  59.7971090  74.1190000  73.4196460  62.9642600  74.8692160  84.8894370
  62.5513780  75.6945870  85.1434360  62.2318550  74.2837200  84.6970730
  55.0975390  77.6552060  79.7513040  54.6932390  76.9429310  79.2558940
  55.1838510  77.3105300  80.6401080  53.8104010  74.4295270  83.5312080
  54.3618600  74.5390610  82.7565330  54.3247520  74.8032870  84.2467310
  65.2797880  69.1837240  72.7942350  64.9670540  69.2764070  73.6941420
  66.0410350  69.7618270  72.7439780  51.7980020  76.5497040  77.2519690
  51.6777620  77.2759130  76.6400960  51.4880910  75.7799950  76.7747600
  54.2643680  69.8932110  80.6343360  53.8211830  70.6741650  80.3027880
  54.8228670  70.2162000  81.3414300  57.3802500  69.5142810  75.5149190
  56.7556680  69.5102680  76.2402500  57.2932620  68.6473770  75.1185160
  56.3019580  70.4379440  82.4932960  56.5991910  71.3442270  82.4124980
  56.8505140  69.9498220  81.8792530  54.0557900  75.0165680  78.3624610
  53.8298820  74.8002850  79.2671230  53.2750430  75.4494140  78.0170580
  61.2855660  75.0229050  76.9615260  60.6864550  75.7464850  76.7778880
  61.8335270  74.9605830  76.1791710  59.8920530  73.6592590  78.9918540
  60.2850100  73.9764790  78.1787230  60.2537380  72.7804470  79.1063060
  48.9284700  70.2493390  81.2148740  48.6397750  70.8196250  81.9273720
  49.6730460  69.7697840  81.5779970  49.1154930  74.1913510  72.4251460
  49.0329600  75.1344270  72.5666450  48.7637990  74.0488420  71.5463810
  60.4775670  76.2498340  83.0869320  59.7456790  76.7585150  83.4359420
  60.0800010  75.4328320  82.7858100  56.9153060  72.9252540  81.4921810
  56.9189120  72.4842490  80.6426350  57.8104180  73.2469870  81.5993630
  52.7655440  72.8079030  80.4516020  52.4255490  73.2854260  81.2083070
  52.0032760  72.3544150  80.0917120  56.9773210  73.9264620  74.4828570
  57.0986030  73.8851100  75.4314390  56.5921720  74.7888770  74.3275300
  60.9401580  71.7032020  82.4992260  60.9574320  72.1540670  83.3434110
  60.6917160  70.8037660  82.7125700  55.9894710  76.2365760  73.8811870
  55.4211610  75.7884010  73.2547780  56.6983710  76.5958540  73.3477020
  57.2161030  76.9854320  83.2387220  57.5831160  76.5112890  83.9848560
  57.0266090  77.8595890  83.5795560  50.0801520  71.7298010  79.3680690
  49.7948440  71.3653680  80.2059310  50.0180380  70.9978470  78.7543830
  55.0060400  76.0262960  85.5571430  54.7017470  76.9054940  85.7821790
  55.9606860  76.0862750  85.5928870  59.7540110  70.6227270  76.0894060
  58.9404720  70.1240440  76.0139370  59.5602060  71.4625520  75.6730410
  62.4688500  74.9946920  74.3856220  63.3568120  75.3064150  74.2107560
  62.4393590  74.1219170  73.9936800  64.7402770  76.3058760  73.8536080
  64.6566490  76.7372980  73.0032520  65.4596960  76.7657110  74.2862900
  49.5732180  76.8656960  73.3277390  50.4427030  77.1481760  73.6113310
  49.0822500  77.6792830  73.2126200  52.6378770  68.5967820  77.9208190
  52.5093400  68.5885720  78.8693110  51.8140790  68.9350910  77.5699200
  61.1311480  72.8481250  85.1316340  61.4992300  72.0276460  85.4595910
  60.2709680  72.9083140  85.5471990  64.4973510  71.8038190  75.9403900
  63.8686670  71.9083860  75.2262130  64.0025430  72.0234970  76.7297780
  56.4657540  74.0824140  77.3561780  55.7573690  74.5510480  77.7975390
  56.7502020  73.4246150  77.9906970  58.0913470  75.5020840  85.3554310
  58.5898720  75.9766660  86.0206160  58.2336420  74.5784360  85.5624340
  60.4972970  70.8074800  78.7957570  60.3740750  70.8260930  77.8467080
  61.4457530  70.8553740  78.9155970  54.6692560  72.3909220  74.7312490
  55.5183090  72.8279370  74.6652680  54.3023830  72.7029480  75.5584550
  63.5902340  76.9621980  79.6444060  62.6492480  76.9772210  79.8191750
  63.9046410  76.1757940  80.0904360  52.2630740  76.0766650  73.8880910
  52.3434330  75.1294160  73.9998310  53.1550490  76.4073530  73.9941570
  57.0164170  70.1438870  85.0986320  56.5681470  70.1663130  84.2531870
  56.3829370  69.7457890  85.6956620  54.4961910  74.7139940  72.1248820
  54.2950970  73.8507300  72.4862160  54.3253960  74.6273300  71.1870420
  61.9750220  69.5248170  74.6535700  62.2552510  68.6816070  75.0095120
  61.2015950  69.7571280  75.1674450  53.2944710  71.8140560  72.1126700
  53.5970610  71.8207990  71.2045850  54.0339300  71.4638420  72.6094360
  56.5129640  70.7575180  73.0982900  56.1651640  70.0799170  72.5185350
  56.7142410  70.2964690  73.9126290  49.8535280  77.2862830  79.4947270
  49.1984120  77.0174470  78.8506970  50.6913230  77.1767310  79.0449250
  62.8025720  72.0804120  73.7165760  63.2210600  71.8935100  72.8762420
  62.4961780  71.2283170  74.0268690  66.3015450  76.9928260  77.4141560
  65.9259050  76.2256190  76.9822850  65.5718570  77.3750960  77.9016490
  50.8911210  77.6715400  84.0350610  51.2584250  77.5842800  84.9146630
  50.3222030  76.9081950  83.9357470  49.0673360  74.4961760  75.4372600
  48.1637440  74.7591960  75.2624260  49.5513980  74.7672930  74.6572560
  65.5766410  75.2185750  80.7148800  66.1003890  74.7248400  80.0838970
  66.1625830  75.3536110  81.4596370  65.7556130  75.3025620  84.2368350
  64.8058840  75.2689160  84.3513340  65.9369140  76.2125730  84.0018120
  51.6100570  73.5527300  73.3466980  52.3192270  73.1310520  72.8614260
  50.8940510  73.6202530  72.7150330  51.2574730  69.6066630  72.3869630
  51.9802860  70.1475570  72.7050850  51.5299250  69.3330050  71.5111170
  65.0666380  74.4759100  76.6541210  65.5625500  74.2429970  77.4390090
  64.8682450  73.6370940  76.2378850  50.9466920  68.8572820  82.2892250
  51.5943110  68.3070200  81.8487410  51.3668760  69.1115970  83.1108060
  66.4953540  73.1120050  79.1878890  66.3852820  72.9576090  80.1261160
  67.2561130  72.5840990  78.9454300  64.8419260  69.0514180  85.6461890
  65.4791480  69.6648320  86.0121080  64.9894150  69.0874840  84.7011120
  67.3843810  70.9427970  72.4285030  68.3093120  70.8109150  72.2203320
  67.3619600  71.0220790  73.3821480  67.4582300  71.7138630  75.0541740
  66.6633800  71.6483750  75.5834650  67.6625580  72.6489270  75.0427090
  50.6998920  69.0128490  85.0317570  50.3513740  69.4692310  85.7975750
  50.3686620  68.1185620  85.1140000  61.5906340  68.4242570  84.5198570
  60.7166180  68.7577680  84.3171500  61.4817090  67.9515750  85.3450440
  62.4978320  70.6313440  85.9040290  62.1691680  69.8165200  85.5242020
  63.4460620  70.5883250  85.7805980  59.3381160  69.3412410  83.4591480
  58.5552950  69.8157910  83.7388240  59.0444090  68.4367240  83.3504660
  63.8902230  70.0435510  81.5040570  64.3310320  69.9880610  80.6562170
  63.6209820  70.9593520  81.5750750  65.7540800  69.6750750  79.5149390
  65.6929200  68.7311970  79.3680410  66.5332830  69.7830840  80.0602850
  50.6821570  69.6459890  75.9805200  51.4400930  69.7588770  75.4069230
  50.2198740  70.4829090  75.9348630  57.2235380  71.7599160  78.9707510
  56.4109890  71.3856050  78.6303390  57.7277020  71.0044240  79.2728700
  61.7260360  68.4241610  80.2090580  62.3289730  68.9961820  80.6839100
  60.9853350  68.9881050  79.9864480  64.8694960  68.8263170  75.4830860
  65.0645590  69.7246620  75.7498290  64.0824830  68.5950250  75.9763810
  53.0546720  70.1723940  74.5207170  53.5839480  69.3853740  74.3915120
  53.6875040  70.8515130  74.7542700  55.2484560  69.9099080  77.5752560
  54.6187300  69.2086390  77.7422690  54.7089700  70.6703210  77.3585720
  60.8813730  76.6229110  60.9520260  60.8007780  75.7083720  60.6811970
  60.4678150  77.1196180  60.2459970  51.4389550  73.6729830  57.4947680
  50.5506250  74.0145800  57.3927560  51.7230740  73.4730150  56.6028510
  49.4022560  76.2735480  63.3787380  49.9738670  75.5057680  63.3791020
  49.4024100  76.5724240  62.4693990  50.6447430  71.6819840  65.1656310
  50.4650270  70.7845590  65.4459070  50.2427510  72.2291710  65.8403260
  59.4845930  73.8835700  63.0668620  59.8610750  73.0107580  62.9542290
  59.3865440  74.2194400  62.1759060  53.6150940  72.2561330  58.5286060
  53.7217690  73.1565060  58.8354820  52.7043300  72.2079300  58.2380710
  63.2670050  71.3786140  59.9996960  64.0879670  70.8882710  60.0422440
  63.3004130  71.9683800  60.7528800  51.2634100  74.1780340  63.7738650
  51.9444210  74.4418710  64.3926050  50.9482150  73.3381210  64.1076660
  55.4558670  75.2247700  62.8611240  55.9636890  75.7228670  63.5016260
  55.9871910  74.4482900  62.6850600  67.5569600  73.3952890  66.5640590
  66.8521770  73.7834600  66.0455700  67.8227520  74.0903180  67.1661520
  53.7394770  69.8646260  67.1274660  53.7413210  70.3818650  66.3220560
  52.9099080  69.3876440  67.1044590  63.5031530  73.3186520  62.7724500
  62.7987100  73.6071410  63.3527610  63.8643690  74.1286630  62.4124060
  53.4210100  71.5756220  65.1345110  53.7626910  72.4198270  64.8398980
  52.4825910  71.7239960  65.2510450  66.5718450  72.7641310  63.1633710
  65.6243360  72.7980290  63.2949140  66.8968440  73.5780260  63.5483070
  57.1037990  69.0638490  61.4589700  57.4112970  68.5085380  60.7425200
  56.1738690  69.1982950  61.2762690  59.4918750  77.1287320  58.1949820
  58.5648030  77.0624700  58.4238290  59.6443570  78.0667450  58.0805060
  59.4787830  73.4004320  55.1916980  58.5391500  73.5618280  55.2769440
  59.7971090  74.1190000  54.6452970  62.9642600  74.8692160  66.1150880
  62.5513780  75.6945870  66.3690870  62.2318550  74.2837200  65.9227240
  55.0975390  77.6552060  60.9769550  54.6932390  76.9429310  60.4815450
  55.1838510  77.3105300  61.8657590  53.8104010  74.4295270  64.7568590
  54.3618600  74.5390610  63.9821840  54.3247520  74.8032870  65.4723820
  65.2797880  69.1837240  54.0198860  64.9670540  69.2764070  54.9197930
  66.0410350  69.7618270  53.9696290  51.7980020  76.5497040  58.4776200
  51.6777620  77.2759130  57.8657470  51.4880910  75.7799950  58.0004110
  66.4899170  73.9208740  69.9973000  65.8743440  74.4288410  69.4688460
  66.1695590  73.0207070  69.9398940  54.2643680  69.8932110  61.8599870
  53.8211830  70.6741650  61.5284390  54.8228670  70.2162000  62.5670810
  58.5513490  72.7600630  67.4635190  58.0892860  72.9683650  68.2755130
  58.1491600  71.9459980  67.1605860  63.5518000  73.9809580  68.5931850
  62.7011590  73.6815330  68.9140920  63.3919790  74.2251590  67.6815670
  60.6467710  75.4811330  70.6930640  60.9721120  74.6475080  70.3532870
  61.4348040  76.0039850  70.8408970  57.3802500  69.5142810  56.7405700
  56.7556680  69.5102680  57.4659010  57.2932620  68.6473770  56.3441670
  56.3019580  70.4379440  63.7189470  56.5991910  71.3442270  63.6381490
  56.8505140  69.9498220  63.1049040  54.0557900  75.0165680  59.5881120
  53.8298820  74.8002850  60.4927740  53.2750430  75.4494140  59.2427090
  61.2855660  75.0229050  58.1871770  60.6864550  75.7464850  58.0035390
  61.8335270  74.9605830  57.4048220  56.4957110  75.9151260  70.2541390
  56.4000710  74.9745990  70.1041790  57.3389090  76.1366330  69.8589460
  59.8920530  73.6592590  60.2175050  60.2850100  73.9764790  59.4043740
  60.2537380  72.7804470  60.3319570  51.6267650  72.3264930  68.4075170
  51.2331040  73.1740140  68.6147950  50.9386050  71.6891300  68.5983810
  58.2012700  72.4099900  71.4771910  57.5111020  72.2172100  72.1118000
  58.9445000  72.6934540  72.0096210  48.9284700  70.2493390  62.4405250
  48.6397750  70.8196250  63.1530230  49.6730460  69.7697840  62.8036480
  49.1154930  74.1913510  53.6507970  49.0329600  75.1344270  53.7922960
  48.7637990  74.0488420  52.7720320  60.4775670  76.2498340  64.3125830
  59.7456790  76.7585150  64.6615930  60.0800010  75.4328320  64.0114610
  56.9153060  72.9252540  62.7178320  56.9189120  72.4842490  61.8682860
  57.8104180  73.2469870  62.8250140  52.7655440  72.8079030  61.6772530
  52.4255490  73.2854260  62.4339580  52.0032760  72.3544150  61.3173630
  56.9773210  73.9264620  55.7085080  57.0986030  73.8851100  56.6570900
  56.5921720  74.7888770  55.5531810  60.9401580  71.7032020  63.7248770
  60.9574320  72.1540670  64.5690620  60.6917160  70.8037660  63.9382210
  55.9894710  76.2365760  55.1068380  55.4211610  75.7884010  54.4804290
  56.6983710  76.5958540  54.5733530  64.3672330  69.1164200  69.5635150
  64.6918100  68.3853860  70.0893130  64.4028840  68.7977840  68.6616140
  57.2161030  76.9854320  64.4643730  57.5831160  76.5112890  65.2105070
  57.0266090  77.8595890  64.8052070  50.0801520  71.7298010  60.5937200
  49.7948440  71.3653680  61.4315820  50.0180380  70.9978470  59.9800340
  55.0060400  76.0262960  66.7827940  54.7017470  76.9054940  67.0078300
  55.9606860  76.0862750  66.8185380  59.7540110  70.6227270  57.3150570
  58.9404720  70.1240440  57.2395880  59.5602060  71.4625520  56.8986920
  62.4688500  74.9946920  55.6112730  63.3568120  75.3064150  55.4364070
  62.4393590  74.1219170  55.2193310  51.0624130  76.8665700  67.9299300
  50.7039070  77.5319550  68.5172640  50.7678690  76.0349250  68.3011920
  54.2637250  77.3249940  70.8138850  53.9637390  77.4707120  69.9166670
  55.0348490  76.7655230  70.7212240  64.7402770  76.3058760  55.0792590
  64.6566490  76.7372980  54.2289030  65.4596960  76.7657110  55.5119410
  49.5732180  76.8656960  54.5533900  50.4427030  77.1481760  54.8369820
  49.0822500  77.6792830  54.4382710  52.6378770  68.5967820  59.1464700
  52.5093400  68.5885720  60.0949620  51.8140790  68.9350910  58.7955710
  49.6372700  70.3558940  68.6071400  48.9231220  70.5555860  69.2124010
  50.0567740  69.5798510  68.9786200  61.1311480  72.8481250  66.3572850
  61.4992300  72.0276460  66.6852420  60.2709680  72.9083140  66.7728500
  64.4973510  71.8038190  57.1660410  63.8686670  71.9083860  56.4518640
  64.0025430  72.0234970  57.9554290  56.4657540  74.0824140  58.5818290
  55.7573690  74.5510480  59.0231900  56.7502020  73.4246150  59.2163480
  58.0913470  75.5020840  66.5810820  58.5898720  75.9766660  67.2462670
  58.2336420  74.5784360  66.7880850  60.4972970  70.8074800  60.0214080
  60.3740750  70.8260930  59.0723590  61.4457530  70.8553740  60.1412480
  54.6692560  72.3909220  55.9569000  55.5183090  72.8279370  55.8909190
  54.3023830  72.7029480  56.7841060  65.2980330  71.7188800  67.4239210
  64.7953930  72.4594200  67.7633020  66.1136990  72.1072800  67.1076000
  63.5902340  76.9621980  60.8700570  62.6492480  76.9772210  61.0448260
  63.9046410  76.1757940  61.3160870  52.2630740  76.0766650  55.1137420
  52.3434330  75.1294160  55.2254820  53.1550490  76.4073530  55.2198080
  49.7901540  77.8981570  70.3493590  50.2940560  77.3188850  70.9209820
  49.0508960  78.1821800  70.8869960  51.8224620  76.0411160  71.2443660
  51.8629960  75.7425030  72.1528890  52.6770120  76.4418770  71.0851180
  53.7630430  74.6203260  69.2118150  53.2326890  74.1294210  68.5841490
  54.4318500  75.0487460  68.6776080  63.1330660  76.4268880  70.9798490
  63.7151430  75.6721200  70.8918970  63.3092430  76.9576320  70.2029970
  54.2502730  71.5865630  69.2915440  54.1559600  70.9686380  68.5666310
  53.6700120  72.3131920  69.0645350  57.0164170  70.1438870  66.3242830
  56.5681470  70.1663130  65.4788380  56.3829370  69.7457890  66.9213130
  59.7587620  76.7709380  68.3293110  59.8783830  76.1750520  69.0687950
  60.6181620  76.8079070  67.9094410  62.0975520  77.3246570  66.9055620
  61.5710740  77.8489190  66.3020760  62.4406860  77.9573960  67.5365350
  54.4961910  74.7139940  53.3505330  54.2950970  73.8507300  53.7118670
  54.3253960  74.6273300  52.4126930  56.5256390  73.3130730  69.5868930
  57.1156080  73.0046580  70.2746750  55.7076630  72.8410480  69.7428830
  61.3449820  72.9296540  69.8201950  60.6565340  72.2678080  69.7551940
  62.0655840  72.4834810  70.2650410  61.9750220  69.5248170  55.8792210
  62.2552510  68.6816070  56.2351630  61.2015950  69.7571280  56.3930960
  53.2944710  71.8140560  53.3383210  53.5970610  71.8207990  52.4302360
  54.0339300  71.4638420  53.8350870  56.5129640  70.7575180  54.3239410
  56.1651640  70.0799170  53.7441860  56.7142410  70.2964690  55.1382800
  49.8535280  77.2862830  60.7203780  49.1984120  77.0174470  60.0763480
  50.6913230  77.1767310  60.2705760  62.8025720  72.0804120  54.9422270
  63.2210600  71.8935100  54.1018930  62.4961780  71.2283170  55.2525200
  66.3015450  76.9928260  58.6398070  65.9259050  76.2256190  58.2079360
  65.5718570  77.3750960  59.1273000  50.8911210  77.6715400  65.2607120
  51.2584250  77.5842800  66.1403140  50.3222030  76.9081950  65.1613980
  65.6915070  76.1399780  68.2737590  65.4601160  75.9112530  67.3735540
  65.9519620  77.0599330  68.2282480  50.4427210  74.5824490  69.1665540
  49.5483260  74.5491250  69.5059250  50.9824760  74.7811280  69.9316790
  64.1303140  71.3656210  71.0517290  65.0073320  71.3739610  71.4351290
  64.1423980  70.6287050  70.4409640  49.0673360  74.4961760  56.6629110
  48.1637440  74.7591960  56.4880770  49.5513980  74.7672930  55.8829070
  65.5766410  75.2185750  61.9405310  66.1003890  74.7248400  61.3095480
  66.1625830  75.3536110  62.6852880  65.7556130  75.3025620  65.4624860
  64.8058840  75.2689160  65.5769850  65.9369140  76.2125730  65.2274630
  51.6100570  73.5527300  54.5723490  52.3192270  73.1310520  54.0870770
  50.8940510  73.6202530  53.9406840  51.2574730  69.6066630  53.6126140
  51.9802860  70.1475570  53.9307360  51.5299250  69.3330050  52.7367680
  65.0666380  74.4759100  57.8797720  65.5625500  74.2429970  58.6646600
  64.8682450  73.6370940  57.4635360  50.9466920  68.8572820  63.5148760
  51.5943110  68.3070200  63.0743920  51.3668760  69.1115970  64.3364570
  66.4953540  73.1120050  60.4135400  66.3852820  72.9576090  61.3517670
  67.2561130  72.5840990  60.1710810  64.8419260  69.0514180  66.8718400
  65.4791480  69.6648320  67.2377590  64.9894150  69.0874840  65.9267630
  67.3843810  70.9427970  53.6541540  68.3093120  70.8109150  53.4459830
  67.3619600  71.0220790  54.6077990  67.4582300  71.7138630  56.2798250
  66.6633800  71.6483750  56.8091160  67.6625580  72.6489270  56.2683600
  50.6998920  69.0128490  66.2574080  50.3513740  69.4692310  67.0232260
  50.3686620  68.1185620  66.3396510  58.2123740  70.2040370  69.7793500
  58.1512630  70.7962200  70.5288910  59.1524120  70.0966330  69.6343760
  60.8498300  69.8610430  69.4185790  61.4638710  70.1789720  68.7566870
  61.3947860  69.3759020  70.0381650  51.3719560  68.5404690  69.5324850
  51.9202550  68.3592740  68.7690960  51.4374870  67.7498800  70.0681160
  61.5906340  68.4242570  65.7455080  60.7166180  68.7577680  65.5428010
  61.4817090  67.9515750  66.5706950  62.4978320  70.6313440  67.1296800
  62.1691680  69.8165200  66.7498530  63.4460620  70.5883250  67.0062490
  59.3381160  69.3412410  64.6847990  58.5552950  69.8157910  64.9644750
  59.0444090  68.4367240  64.5761170  63.8902230  70.0435510  62.7297080
  64.3310320  69.9880610  61.8818680  63.6209820  70.9593520  62.8007260
  65.7540800  69.6750750  60.7405900  65.6929200  68.7311970  60.5936920
  66.5332830  69.7830840  61.2859360  50.6821570  69.6459890  57.2061710
  51.4400930  69.7588770  56.6325740  50.2198740  70.4829090  57.1605140
  57.2235380  71.7599160  60.1964020  56.4109890  71.3856050  59.8559900
  57.7277020  71.0044240  60.4985210  61.7260360  68.4241610  61.4347090
  62.3289730  68.9961820  61.9095610  60.9853350  68.9881050  61.2120990
  64.8694960  68.8263170  56.7087370  65.0645590  69.7246620  56.9754800
  64.0824830  68.5950250  57.2020320  53.0546720  70.1723940  55.7463680
  53.5839480  69.3853740  55.6171630  53.6875040  70.8515130  55.9799210
  55.2484560  69.9099080  58.8009070  54.6187300  69.2086390  58.9679200
  54.7089700  70.6703210  58.5842230  55.3740120  69.1883060  71.2361560
  55.0924390  69.6916660  70.4722380  55.7559820  68.3904810  70.8703690
  61.9755580  68.6036640  71.8142030  61.8621030  68.9231250  72.7093550
  62.7925320  69.0049150  71.5179310  60.8813730  76.6229110  42.1776770
  60.8007780  75.7083720  41.9068480  60.4678150  77.1196180  41.4716480
  51.4389550  73.6729830  38.7204190  50.5506250  74.0145800  38.6184070
  51.7230740  73.4730150  37.8285020  49.4022560  76.2735480  44.6043890
  49.9738670  75.5057680  44.6047530  49.4024100  76.5724240  43.6950500
  50.6447430  71.6819840  46.3912820  50.4650270  70.7845590  46.6715580
  50.2427510  72.2291710  47.0659770  59.4845930  73.8835700  44.2925130
  59.8610750  73.0107580  44.1798800  59.3865440  74.2194400  43.4015570
  53.6150940  72.2561330  39.7542570  53.7217690  73.1565060  40.0611330
  52.7043300  72.2079300  39.4637220  63.2670050  71.3786140  41.2253470
  64.0879670  70.8882710  41.2678950  63.3004130  71.9683800  41.9785310
  51.2634100  74.1780340  44.9995160  51.9444210  74.4418710  45.6182560
  50.9482150  73.3381210  45.3333170  55.4558670  75.2247700  44.0867750
  55.9636890  75.7228670  44.7272770  55.9871910  74.4482900  43.9107110
  67.5569600  73.3952890  47.7897100  66.8521770  73.7834600  47.2712210
  67.8227520  74.0903180  48.3918030  53.7394770  69.8646260  48.3531170
  53.7413210  70.3818650  47.5477070  52.9099080  69.3876440  48.3301100
  63.5031530  73.3186520  43.9981010  62.7987100  73.6071410  44.5784120
  63.8643690  74.1286630  43.6380570  53.4210100  71.5756220  46.3601620
  53.7626910  72.4198270  46.0655490  52.4825910  71.7239960  46.4766960
  66.5718450  72.7641310  44.3890220  65.6243360  72.7980290  44.5205650
  66.8968440  73.5780260  44.7739580  57.1037990  69.0638490  42.6846210
  57.4112970  68.5085380  41.9681710  56.1738690  69.1982950  42.5019200
  59.4918750  77.1287320  39.4206330  58.5648030  77.0624700  39.6494800
  59.6443570  78.0667450  39.3061570  59.4787830  73.4004320  36.4173490
  58.5391500  73.5618280  36.5025950  59.7971090  74.1190000  35.8709480
  62.9642600  74.8692160  47.3407390  62.5513780  75.6945870  47.5947380
  62.2318550  74.2837200  47.1483750  55.0975390  77.6552060  42.2026060
  54.6932390  76.9429310  41.7071960  55.1838510  77.3105300  43.0914100
  53.8104010  74.4295270  45.9825100  54.3618600  74.5390610  45.2078350
  54.3247520  74.8032870  46.6980330  65.2797880  69.1837240  35.2455370
  64.9670540  69.2764070  36.1454440  66.0410350  69.7618270  35.1952800
  51.7980020  76.5497040  39.7032710  51.6777620  77.2759130  39.0913980
  51.4880910  75.7799950  39.2260620  66.4899170  73.9208740  51.2229510
  65.8743440  74.4288410  50.6944970  66.1695590  73.0207070  51.1655450
  54.2643680  69.8932110  43.0856380  53.8211830  70.6741650  42.7540900
  54.8228670  70.2162000  43.7927320  58.5513490  72.7600630  48.6891700
  58.0892860  72.9683650  49.5011640  58.1491600  71.9459980  48.3862370
  63.5518000  73.9809580  49.8188360  62.7011590  73.6815330  50.1397430
  63.3919790  74.2251590  48.9072180  60.6467710  75.4811330  51.9187150
  60.9721120  74.6475080  51.5789380  61.4348040  76.0039850  52.0665480
  57.3802500  69.5142810  37.9662210  56.7556680  69.5102680  38.6915520
  57.2932620  68.6473770  37.5698180  56.3019580  70.4379440  44.9445980
  56.5991910  71.3442270  44.8638000  56.8505140  69.9498220  44.3305550
  54.0557900  75.0165680  40.8137630  53.8298820  74.8002850  41.7184250
  53.2750430  75.4494140  40.4683600  61.2855660  75.0229050  39.4128280
  60.6864550  75.7464850  39.2291900  61.8335270  74.9605830  38.6304730
  56.4957110  75.9151260  51.4797900  56.4000710  74.9745990  51.3298300
  57.3389090  76.1366330  51.0845970  59.8920530  73.6592590  41.4431560
  60.2850100  73.9764790  40.6300250  60.2537380  72.7804470  41.5576080
  51.6267650  72.3264930  49.6331680  51.2331040  73.1740140  49.8404460
  50.9386050  71.6891300  49.8240320  58.2012700  72.4099900  52.7028420
  57.5111020  72.2172100  53.3374510  58.9445000  72.6934540  53.2352720
  48.9284700  70.2493390  43.6661760  48.6397750  70.8196250  44.3786740
  49.6730460  69.7697840  44.0292990  49.1154930  74.1913510  34.8764480
  49.0329600  75.1344270  35.0179470  48.7637990  74.0488420  33.9976830
  60.4775670  76.2498340  45.5382340  59.7456790  76.7585150  45.8872440
  60.0800010  75.4328320  45.2371120  56.9153060  72.9252540  43.9434830
  56.9189120  72.4842490  43.0939370  57.8104180  73.2469870  44.0506650
  52.7655440  72.8079030  42.9029040  52.4255490  73.2854260  43.6596090
  52.0032760  72.3544150  42.5430140  56.9773210  73.9264620  36.9341590
  57.0986030  73.8851100  37.8827410  56.5921720  74.7888770  36.7788320
  60.9401580  71.7032020  44.9505280  60.9574320  72.1540670  45.7947130
  60.6917160  70.8037660  45.1638720  55.9894710  76.2365760  36.3324890
  55.4211610  75.7884010  35.7060800  56.6983710  76.5958540  35.7990040
  64.3672330  69.1164200  50.7891660  64.6918100  68.3853860  51.3149640
  64.4028840  68.7977840  49.8872650  57.2161030  76.9854320  45.6900240
  57.5831160  76.5112890  46.4361580  57.0266090  77.8595890  46.0308580
  50.0801520  71.7298010  41.8193710  49.7948440  71.3653680  42.6572330
  50.0180380  70.9978470  41.2056850  55.0060400  76.0262960  48.0084450
  54.7017470  76.9054940  48.2334810  55.9606860  76.0862750  48.0441890
  59.7540110  70.6227270  38.5407080  58.9404720  70.1240440  38.4652390
  59.5602060  71.4625520  38.1243430  62.4688500  74.9946920  36.8369240
  63.3568120  75.3064150  36.6620580  62.4393590  74.1219170  36.4449820
  51.0624130  76.8665700  49.1555810  50.7039070  77.5319550  49.7429150
  50.7678690  76.0349250  49.5268430  54.2637250  77.3249940  52.0395360
  53.9637390  77.4707120  51.1423180  55.0348490  76.7655230  51.9468750
  64.7402770  76.3058760  36.3049100  64.6566490  76.7372980  35.4545540
  65.4596960  76.7657110  36.7375920  49.5732180  76.8656960  35.7790410
  50.4427030  77.1481760  36.0626330  49.0822500  77.6792830  35.6639220
  52.6378770  68.5967820  40.3721210  52.5093400  68.5885720  41.3206130
  51.8140790  68.9350910  40.0212220  49.6372700  70.3558940  49.8327910
  48.9231220  70.5555860  50.4380520  50.0567740  69.5798510  50.2042710
  61.1311480  72.8481250  47.5829360  61.4992300  72.0276460  47.9108930
  60.2709680  72.9083140  47.9985010  64.4973510  71.8038190  38.3916920
  63.8686670  71.9083860  37.6775150  64.0025430  72.0234970  39.1810800
  56.4657540  74.0824140  39.8074800  55.7573690  74.5510480  40.2488410
  56.7502020  73.4246150  40.4419990  58.0913470  75.5020840  47.8067330
  58.5898720  75.9766660  48.4719180  58.2336420  74.5784360  48.0137360
  60.4972970  70.8074800  41.2470590  60.3740750  70.8260930  40.2980100
  61.4457530  70.8553740  41.3668990  54.6692560  72.3909220  37.1825510
  55.5183090  72.8279370  37.1165700  54.3023830  72.7029480  38.0097570
  65.2980330  71.7188800  48.6495720  64.7953930  72.4594200  48.9889530
  66.1136990  72.1072800  48.3332510  63.5902340  76.9621980  42.0957080
  62.6492480  76.9772210  42.2704770  63.9046410  76.1757940  42.5417380
  52.2630740  76.0766650  36.3393930  52.3434330  75.1294160  36.4511330
  53.1550490  76.4073530  36.4454590  49.7901540  77.8981570  51.5750100
  50.2940560  77.3188850  52.1466330  49.0508960  78.1821800  52.1126470
  51.8224620  76.0411160  52.4700170  51.8629960  75.7425030  53.3785400
  52.6770120  76.4418770  52.3107690  53.7630430  74.6203260  50.4374660
  53.2326890  74.1294210  49.8098000  54.4318500  75.0487460  49.9032590
  63.1330660  76.4268880  52.2055000  63.7151430  75.6721200  52.1175480
  63.3092430  76.9576320  51.4286480  54.2502730  71.5865630  50.5171950
  54.1559600  70.9686380  49.7922820  53.6700120  72.3131920  50.2901860
  57.0164170  70.1438870  47.5499340  56.5681470  70.1663130  46.7044890
  56.3829370  69.7457890  48.1469640  59.7587620  76.7709380  49.5549620
  59.8783830  76.1750520  50.2944460  60.6181620  76.8079070  49.1350920
  62.0975520  77.3246570  48.1312130  61.5710740  77.8489190  47.5277270
  62.4406860  77.9573960  48.7621860  54.4961910  74.7139940  34.5761840
  54.2950970  73.8507300  34.9375180  54.3253960  74.6273300  33.6383440
  56.5256390  73.3130730  50.8125440  57.1156080  73.0046580  51.5003260
  55.7076630  72.8410480  50.9685340  61.3449820  72.9296540  51.0458460
  60.6565340  72.2678080  50.9808450  62.0655840  72.4834810  51.4906920
  61.9750220  69.5248170  37.1048720  62.2552510  68.6816070  37.4608140
  61.2015950  69.7571280  37.6187470  53.2944710  71.8140560  34.5639720
  53.5970610  71.8207990  33.6558870  54.0339300  71.4638420  35.0607380
  56.5129640  70.7575180  35.5495920  56.1651640  70.0799170  34.9698370
  56.7142410  70.2964690  36.3639310  49.8535280  77.2862830  41.9460290
  49.1984120  77.0174470  41.3019990  50.6913230  77.1767310  41.4962270
  62.8025720  72.0804120  36.1678780  63.2210600  71.8935100  35.3275440
  62.4961780  71.2283170  36.4781710  66.3015450  76.9928260  39.8654580
  65.9259050  76.2256190  39.4335870  65.5718570  77.3750960  40.3529510
  50.8911210  77.6715400  46.4863630  51.2584250  77.5842800  47.3659650
  50.3222030  76.9081950  46.3870490  65.6915070  76.1399780  49.4994100
  65.4601160  75.9112530  48.5992050  65.9519620  77.0599330  49.4538990
  50.4427210  74.5824490  50.3922050  49.5483260  74.5491250  50.7315760
  50.9824760  74.7811280  51.1573300  64.1303140  71.3656210  52.2773800
  65.0073320  71.3739610  52.6607800  64.1423980  70.6287050  51.6666150
  49.0673360  74.4961760  37.8885620  48.1637440  74.7591960  37.7137280
  49.5513980  74.7672930  37.1085580  65.5766410  75.2185750  43.1661820
  66.1003890  74.7248400  42.5351990  66.1625830  75.3536110  43.9109390
  65.7556130  75.3025620  46.6881370  64.8058840  75.2689160  46.8026360
  65.9369140  76.2125730  46.4531140  51.6100570  73.5527300  35.7980000
  52.3192270  73.1310520  35.3127280  50.8940510  73.6202530  35.1663350
  51.2574730  69.6066630  34.8382650  51.9802860  70.1475570  35.1563870
  51.5299250  69.3330050  33.9624190  65.0666380  74.4759100  39.1054230
  65.5625500  74.2429970  39.8903110  64.8682450  73.6370940  38.6891870
  50.9466920  68.8572820  44.7405270  51.5943110  68.3070200  44.3000430
  51.3668760  69.1115970  45.5621080  66.4953540  73.1120050  41.6391910
  66.3852820  72.9576090  42.5774180  67.2561130  72.5840990  41.3967320
  64.8419260  69.0514180  48.0974910  65.4791480  69.6648320  48.4634100
  64.9894150  69.0874840  47.1524140  67.3843810  70.9427970  34.8798050
  68.3093120  70.8109150  34.6716340  67.3619600  71.0220790  35.8334500
  67.4582300  71.7138630  37.5054760  66.6633800  71.6483750  38.0347670
  67.6625580  72.6489270  37.4940110  50.6998920  69.0128490  47.4830590
  50.3513740  69.4692310  48.2488770  50.3686620  68.1185620  47.5653020
  58.2123740  70.2040370  51.0050010  58.1512630  70.7962200  51.7545420
  59.1524120  70.0966330  50.8600270  60.8498300  69.8610430  50.6442300
  61.4638710  70.1789720  49.9823380  61.3947860  69.3759020  51.2638160
  51.3719560  68.5404690  50.7581360  51.9202550  68.3592740  49.9947470
  51.4374870  67.7498800  51.2937670  61.5906340  68.4242570  46.9711590
  60.7166180  68.7577680  46.7684520  61.4817090  67.9515750  47.7963460
  62.4978320  70.6313440  48.3553310  62.1691680  69.8165200  47.9755040
  63.4460620  70.5883250  48.2319000  59.3381160  69.3412410  45.9104500
  58.5552950  69.8157910  46.1901260  59.0444090  68.4367240  45.8017680
  63.8902230  70.0435510  43.9553590  64.3310320  69.9880610  43.1075190
  63.6209820  70.9593520  44.0263770  65.7540800  69.6750750  41.9662410
  65.6929200  68.7311970  41.8193430  66.5332830  69.7830840  42.5115870
  50.6821570  69.6459890  38.4318220  51.4400930  69.7588770  37.8582250
  50.2198740  70.4829090  38.3861650  57.2235380  71.7599160  41.4220530
  56.4109890  71.3856050  41.0816410  57.7277020  71.0044240  41.7241720
  61.7260360  68.4241610  42.6603600  62.3289730  68.9961820  43.1352120
  60.9853350  68.9881050  42.4377500  64.8694960  68.8263170  37.9343880
  65.0645590  69.7246620  38.2011310  64.0824830  68.5950250  38.4276830
  53.0546720  70.1723940  36.9720190  53.5839480  69.3853740  36.8428140
  53.6875040  70.8515130  37.2055720  55.2484560  69.9099080  40.0265580
  54.6187300  69.2086390  40.1935710  54.7089700  70.6703210  39.8098740
  55.3740120  69.1883060  52.4618070  55.0924390  69.6916660  51.6978890
  55.7559820  68.3904810  52.0960200  61.9755580  68.6036640  53.0398540
  61.8621030  68.9231250  53.9350060  62.7925320  69.0049150  52.7435820
  60.8813730  76.6229110  23.4033280  60.8007780  75.7083720  23.1324990
  60.4678150  77.1196180  22.6972990  51.4389550  73.6729830  19.9460700
  50.5506250  74.0145800  19.8440580  51.7230740  73.4730150  19.0541530
  49.4022560  76.2735480  25.8300400  49.9738670  75.5057680  25.8304040
  49.4024100  76.5724240  24.9207010  50.6447430  71.6819840  27.6169330
  50.4650270  70.7845590  27.8972090  50.2427510  72.2291710  28.2916280
  59.4845930  73.8835700  25.5181640  59.8610750  73.0107580  25.4055310
  59.3865440  74.2194400  24.6272080  53.6150940  72.2561330  20.9799080
  53.7217690  73.1565060  21.2867840  52.7043300  72.2079300  20.6893730
  63.2670050  71.3786140  22.4509980  64.0879670  70.8882710  22.4935460
  63.3004130  71.9683800  23.2041820  51.2634100  74.1780340  26.2251670
  51.9444210  74.4418710  26.8439070  50.9482150  73.3381210  26.5589680
  55.4558670  75.2247700  25.3124260  55.9636890  75.7228670  25.9529280
  55.9871910  74.4482900  25.1363620  67.5569600  73.3952890  29.0153610
  66.8521770  73.7834600  28.4968720  67.8227520  74.0903180  29.6174540
  53.7394770  69.8646260  29.5787680  53.7413210  70.3818650  28.7733580
  52.9099080  69.3876440  29.5557610  63.5031530  73.3186520  25.2237520
  62.7987100  73.6071410  25.8040630  63.8643690  74.1286630  24.8637080
  53.4210100  71.5756220  27.5858130  53.7626910  72.4198270  27.2912000
  52.4825910  71.7239960  27.7023470  66.5718450  72.7641310  25.6146730
  65.6243360  72.7980290  25.7462160  66.8968440  73.5780260  25.9996090
  57.1037990  69.0638490  23.9102720  57.4112970  68.5085380  23.1938220
  56.1738690  69.1982950  23.7275710  59.4918750  77.1287320  20.6462840
  58.5648030  77.0624700  20.8751310  59.6443570  78.0667450  20.5318080
  59.4787830  73.4004320  17.6430000  58.5391500  73.5618280  17.7282460
  59.7971090  74.1190000  17.0965990  62.9642600  74.8692160  28.5663900
  62.5513780  75.6945870  28.8203890  62.2318550  74.2837200  28.3740260
  55.0975390  77.6552060  23.4282570  54.6932390  76.9429310  22.9328470
  55.1838510  77.3105300  24.3170610  53.8104010  74.4295270  27.2081610
  54.3618600  74.5390610  26.4334860  54.3247520  74.8032870  27.9236840
  65.2797880  69.1837240  16.4711880  64.9670540  69.2764070  17.3710950
  66.0410350  69.7618270  16.4209310  51.7980020  76.5497040  20.9289220
  51.6777620  77.2759130  20.3170490  51.4880910  75.7799950  20.4517130
  66.4899170  73.9208740  32.4486020  65.8743440  74.4288410  31.9201480
  66.1695590  73.0207070  32.3911960  54.2643680  69.8932110  24.3112890
  53.8211830  70.6741650  23.9797410  54.8228670  70.2162000  25.0183830
  58.5513490  72.7600630  29.9148210  58.0892860  72.9683650  30.7268150
  58.1491600  71.9459980  29.6118880  63.5518000  73.9809580  31.0444870
  62.7011590  73.6815330  31.3653940  63.3919790  74.2251590  30.1328690
  60.6467710  75.4811330  33.1443660  60.9721120  74.6475080  32.8045890
  61.4348040  76.0039850  33.2921990  57.3802500  69.5142810  19.1918720
  56.7556680  69.5102680  19.9172030  57.2932620  68.6473770  18.7954690
  56.3019580  70.4379440  26.1702490  56.5991910  71.3442270  26.0894510
  56.8505140  69.9498220  25.5562060  54.0557900  75.0165680  22.0394140
  53.8298820  74.8002850  22.9440760  53.2750430  75.4494140  21.6940110
  61.2855660  75.0229050  20.6384790  60.6864550  75.7464850  20.4548410
  61.8335270  74.9605830  19.8561240  56.4957110  75.9151260  32.7054410
  56.4000710  74.9745990  32.5554810  57.3389090  76.1366330  32.3102480
  59.8920530  73.6592590  22.6688070  60.2850100  73.9764790  21.8556760
  60.2537380  72.7804470  22.7832590  51.6267650  72.3264930  30.8588190
  51.2331040  73.1740140  31.0660970  50.9386050  71.6891300  31.0496830
  58.2012700  72.4099900  33.9284930  57.5111020  72.2172100  34.5631020
  58.9445000  72.6934540  34.4609230  48.9284700  70.2493390  24.8918270
  48.6397750  70.8196250  25.6043250  49.6730460  69.7697840  25.2549500
  49.1154930  74.1913510  16.1020990  49.0329600  75.1344270  16.2435980
  48.7637990  74.0488420  15.2233340  60.4775670  76.2498340  26.7638850
  59.7456790  76.7585150  27.1128950  60.0800010  75.4328320  26.4627630
  56.9153060  72.9252540  25.1691340  56.9189120  72.4842490  24.3195880
  57.8104180  73.2469870  25.2763160  52.7655440  72.8079030  24.1285550
  52.4255490  73.2854260  24.8852600  52.0032760  72.3544150  23.7686650
  56.9773210  73.9264620  18.1598100  57.0986030  73.8851100  19.1083920
  56.5921720  74.7888770  18.0044830  60.9401580  71.7032020  26.1761790
  60.9574320  72.1540670  27.0203640  60.6917160  70.8037660  26.3895230
  55.9894710  76.2365760  17.5581400  55.4211610  75.7884010  16.9317310
  56.6983710  76.5958540  17.0246550  64.3672330  69.1164200  32.0148170
  64.6918100  68.3853860  32.5406150  64.4028840  68.7977840  31.1129160
  57.2161030  76.9854320  26.9156750  57.5831160  76.5112890  27.6618090
  57.0266090  77.8595890  27.2565090  50.0801520  71.7298010  23.0450220
  49.7948440  71.3653680  23.8828840  50.0180380  70.9978470  22.4313360
  55.0060400  76.0262960  29.2340960  54.7017470  76.9054940  29.4591320
  55.9606860  76.0862750  29.2698400  59.7540110  70.6227270  19.7663590
  58.9404720  70.1240440  19.6908900  59.5602060  71.4625520  19.3499940
  62.4688500  74.9946920  18.0625750  63.3568120  75.3064150  17.8877090
  62.4393590  74.1219170  17.6706330  51.0624130  76.8665700  30.3812320
  50.7039070  77.5319550  30.9685660  50.7678690  76.0349250  30.7524940
  54.2637250  77.3249940  33.2651870  53.9637390  77.4707120  32.3679690
  55.0348490  76.7655230  33.1725260  64.7402770  76.3058760  17.5305610
  64.6566490  76.7372980  16.6802050  65.4596960  76.7657110  17.9632430
  49.5732180  76.8656960  17.0046920  50.4427030  77.1481760  17.2882840
  49.0822500  77.6792830  16.8895730  52.6378770  68.5967820  21.5977720
  52.5093400  68.5885720  22.5462640  51.8140790  68.9350910  21.2468730
  49.6372700  70.3558940  31.0584420  48.9231220  70.5555860  31.6637030
  50.0567740  69.5798510  31.4299220  61.1311480  72.8481250  28.8085870
  61.4992300  72.0276460  29.1365440  60.2709680  72.9083140  29.2241520
  64.4973510  71.8038190  19.6173430  63.8686670  71.9083860  18.9031660
  64.0025430  72.0234970  20.4067310  56.4657540  74.0824140  21.0331310
  55.7573690  74.5510480  21.4744920  56.7502020  73.4246150  21.6676500
  58.0913470  75.5020840  29.0323840  58.5898720  75.9766660  29.6975690
  58.2336420  74.5784360  29.2393870  60.4972970  70.8074800  22.4727100
  60.3740750  70.8260930  21.5236610  61.4457530  70.8553740  22.5925500
  54.6692560  72.3909220  18.4082020  55.5183090  72.8279370  18.3422210
  54.3023830  72.7029480  19.2354080  65.2980330  71.7188800  29.8752230
  64.7953930  72.4594200  30.2146040  66.1136990  72.1072800  29.5589020
  63.5902340  76.9621980  23.3213590  62.6492480  76.9772210  23.4961280
  63.9046410  76.1757940  23.7673890  52.2630740  76.0766650  17.5650440
  52.3434330  75.1294160  17.6767840  53.1550490  76.4073530  17.6711100
  49.7901540  77.8981570  32.8006610  50.2940560  77.3188850  33.3722840
  49.0508960  78.1821800  33.3382980  51.8224620  76.0411160  33.6956680
  51.8629960  75.7425030  34.6041910  52.6770120  76.4418770  33.5364200
  53.7630430  74.6203260  31.6631170  53.2326890  74.1294210  31.0354510
  54.4318500  75.0487460  31.1289100  63.1330660  76.4268880  33.4311510
  63.7151430  75.6721200  33.3431990  63.3092430  76.9576320  32.6542990
  54.2502730  71.5865630  31.7428460  54.1559600  70.9686380  31.0179330
  53.6700120  72.3131920  31.5158370  57.0164170  70.1438870  28.7755850
  56.5681470  70.1663130  27.9301400  56.3829370  69.7457890  29.3726150
  59.7587620  76.7709380  30.7806130  59.8783830  76.1750520  31.5200970
  60.6181620  76.8079070  30.3607430  62.0975520  77.3246570  29.3568640
  61.5710740  77.8489190  28.7533780  62.4406860  77.9573960  29.9878370
  54.4961910  74.7139940  15.8018350  54.2950970  73.8507300  16.1631690
  54.3253960  74.6273300  14.8639950  56.5256390  73.3130730  32.0381950
  57.1156080  73.0046580  32.7259770  55.7076630  72.8410480  32.1941850
  61.3449820  72.9296540  32.2714970  60.6565340  72.2678080  32.2064960
  62.0655840  72.4834810  32.7163430  61.9750220  69.5248170  18.3305230
  62.2552510  68.6816070  18.6864650  61.2015950  69.7571280  18.8443980
  53.2944710  71.8140560  15.7896230  53.5970610  71.8207990  14.8815380
  54.0339300  71.4638420  16.2863890  56.5129640  70.7575180  16.7752430
  56.1651640  70.0799170  16.1954880  56.7142410  70.2964690  17.5895820
  49.8535280  77.2862830  23.1716800  49.1984120  77.0174470  22.5276500
  50.6913230  77.1767310  22.7218780  62.8025720  72.0804120  17.3935290
  63.2210600  71.8935100  16.5531950  62.4961780  71.2283170  17.7038220
  66.3015450  76.9928260  21.0911090  65.9259050  76.2256190  20.6592380
  65.5718570  77.3750960  21.5786020  50.8911210  77.6715400  27.7120140
  51.2584250  77.5842800  28.5916160  50.3222030  76.9081950  27.6127000
  65.6915070  76.1399780  30.7250610  65.4601160  75.9112530  29.8248560
  65.9519620  77.0599330  30.6795500  50.4427210  74.5824490  31.6178560
  49.5483260  74.5491250  31.9572270  50.9824760  74.7811280  32.3829810
  64.1303140  71.3656210  33.5030310  65.0073320  71.3739610  33.8864310
  64.1423980  70.6287050  32.8922660  49.0673360  74.4961760  19.1142130
  48.1637440  74.7591960  18.9393790  49.5513980  74.7672930  18.3342090
  65.5766410  75.2185750  24.3918330  66.1003890  74.7248400  23.7608500
  66.1625830  75.3536110  25.1365900  65.7556130  75.3025620  27.9137880
  64.8058840  75.2689160  28.0282870  65.9369140  76.2125730  27.6787650
  51.6100570  73.5527300  17.0236510  52.3192270  73.1310520  16.5383790
  50.8940510  73.6202530  16.3919860  51.2574730  69.6066630  16.0639160
  51.9802860  70.1475570  16.3820380  51.5299250  69.3330050  15.1880700
  65.0666380  74.4759100  20.3310740  65.5625500  74.2429970  21.1159620
  64.8682450  73.6370940  19.9148380  50.9466920  68.8572820  25.9661780
  51.5943110  68.3070200  25.5256940  51.3668760  69.1115970  26.7877590
  66.4953540  73.1120050  22.8648420  66.3852820  72.9576090  23.8030690
  67.2561130  72.5840990  22.6223830  64.8419260  69.0514180  29.3231420
  65.4791480  69.6648320  29.6890610  64.9894150  69.0874840  28.3780650
  67.3843810  70.9427970  16.1054560  68.3093120  70.8109150  15.8972850
  67.3619600  71.0220790  17.0591010  67.4582300  71.7138630  18.7311270
  66.6633800  71.6483750  19.2604180  67.6625580  72.6489270  18.7196620
  50.6998920  69.0128490  28.7087100  50.3513740  69.4692310  29.4745280
  50.3686620  68.1185620  28.7909530  58.2123740  70.2040370  32.2306520
  58.1512630  70.7962200  32.9801930  59.1524120  70.0966330  32.0856780
  60.8498300  69.8610430  31.8698810  61.4638710  70.1789720  31.2079890
  61.3947860  69.3759020  32.4894670  51.3719560  68.5404690  31.9837870
  51.9202550  68.3592740  31.2203980  51.4374870  67.7498800  32.5194180
  61.5906340  68.4242570  28.1968100  60.7166180  68.7577680  27.9941030
  61.4817090  67.9515750  29.0219970  62.4978320  70.6313440  29.5809820
  62.1691680  69.8165200  29.2011550  63.4460620  70.5883250  29.4575510
  59.3381160  69.3412410  27.1361010  58.5552950  69.8157910  27.4157770
  59.0444090  68.4367240  27.0274190  63.8902230  70.0435510  25.1810100
  64.3310320  69.9880610  24.3331700  63.6209820  70.9593520  25.2520280
  65.7540800  69.6750750  23.1918920  65.6929200  68.7311970  23.0449940
  66.5332830  69.7830840  23.7372380  50.6821570  69.6459890  19.6574730
  51.4400930  69.7588770  19.0838760  50.2198740  70.4829090  19.6118160
  57.2235380  71.7599160  22.6477040  56.4109890  71.3856050  22.3072920
  57.7277020  71.0044240  22.9498230  61.7260360  68.4241610  23.8860110
  62.3289730  68.9961820  24.3608630  60.9853350  68.9881050  23.6634010
  64.8694960  68.8263170  19.1600390  65.0645590  69.7246620  19.4267820
  64.0824830  68.5950250  19.6533340  53.0546720  70.1723940  18.1976700
  53.5839480  69.3853740  18.0684650  53.6875040  70.8515130  18.4312230
  55.2484560  69.9099080  21.2522090  54.6187300  69.2086390  21.4192220
  54.7089700  70.6703210  21.0355250  55.3740120  69.1883060  33.6874580
  55.0924390  69.6916660  32.9235400  55.7559820  68.3904810  33.3216710
  61.9755580  68.6036640  34.2655050  61.8621030  68.9231250  35.1606570
  62.7925320  69.0049150  33.9692330  60.8813730  76.6229110   4.6289790
  60.8007780  75.7083720   4.3581500  60.4678150  77.1196180   3.9229500
  49.4022560  76.2735480   7.0556910  49.9738670  75.5057680   7.0560550
  49.4024100  76.5724240   6.1463520  50.6447430  71.6819840   8.8425840
  50.4650270  70.7845590   9.1228600  50.2427510  72.2291710   9.5172790
  59.4845930  73.8835700   6.7438150  59.8610750  73.0107580   6.6311820
  59.3865440  74.2194400   5.8528590  53.6150940  72.2561330   2.2055590
  53.7217690  73.1565060   2.5124350  52.7043300  72.2079300   1.9150240
  63.2670050  71.3786140   3.6766490  64.0879670  70.8882710   3.7191970
  63.3004130  71.9683800   4.4298330  51.2634100  74.1780340   7.4508180
  51.9444210  74.4418710   8.0695580  50.9482150  73.3381210   7.7846190
  55.4558670  75.2247700   6.5380770  55.9636890  75.7228670   7.1785790
  55.9871910  74.4482900   6.3620130  67.5569600  73.3952890  10.2410120
  66.8521770  73.7834600   9.7225230  67.8227520  74.0903180  10.8431050
  53.7394770  69.8646260  10.8044190  53.7413210  70.3818650   9.9990090
  52.9099080  69.3876440  10.7814120  63.5031530  73.3186520   6.4494030
  62.7987100  73.6071410   7.0297140  63.8643690  74.1286630   6.0893590
  53.4210100  71.5756220   8.8114640  53.7626910  72.4198270   8.5168510
  52.4825910  71.7239960   8.9279980  66.5718450  72.7641310   6.8403240
  65.6243360  72.7980290   6.9718670  66.8968440  73.5780260   7.2252600
  57.1037990  69.0638490   5.1359230  57.4112970  68.5085380   4.4194730
  56.1738690  69.1982950   4.9532220  59.4918750  77.1287320   1.8719350
  58.5648030  77.0624700   2.1007820  59.6443570  78.0667450   1.7574590
  62.9642600  74.8692160   9.7920410  62.5513780  75.6945870  10.0460400
  62.2318550  74.2837200   9.5996770  55.0975390  77.6552060   4.6539080
  54.6932390  76.9429310   4.1584980  55.1838510  77.3105300   5.5427120
  53.8104010  74.4295270   8.4338120  54.3618600  74.5390610   7.6591370
  54.3247520  74.8032870   9.1493350  51.7980020  76.5497040   2.1545730
  51.6777620  77.2759130   1.5427000  51.4880910  75.7799950   1.6773640
  66.4899170  73.9208740  13.6742530  65.8743440  74.4288410  13.1457990
  66.1695590  73.0207070  13.6168470  54.2643680  69.8932110   5.5369400
  53.8211830  70.6741650   5.2053920  54.8228670  70.2162000   6.2440340
  58.5513490  72.7600630  11.1404720  58.0892860  72.9683650  11.9524660
  58.1491600  71.9459980  10.8375390  63.5518000  73.9809580  12.2701380
  62.7011590  73.6815330  12.5910450  63.3919790  74.2251590  11.3585200
  60.6467710  75.4811330  14.3700170  60.9721120  74.6475080  14.0302400
  61.4348040  76.0039850  14.5178500  56.3019580  70.4379440   7.3959000
  56.5991910  71.3442270   7.3151020  56.8505140  69.9498220   6.7818570
  54.0557900  75.0165680   3.2650650  53.8298820  74.8002850   4.1697270
  53.2750430  75.4494140   2.9196620  56.4957110  75.9151260  13.9310920
  56.4000710  74.9745990  13.7811320  57.3389090  76.1366330  13.5358990
  59.8920530  73.6592590   3.8944580  60.2850100  73.9764790   3.0813270
  60.2537380  72.7804470   4.0089100  51.6267650  72.3264930  12.0844700
  51.2331040  73.1740140  12.2917480  50.9386050  71.6891300  12.2753340
  58.2012700  72.4099900  15.1541440  57.5111020  72.2172100  15.7887530
  58.9445000  72.6934540  15.6865740  48.9284700  70.2493390   6.1174780
  48.6397750  70.8196250   6.8299760  49.6730460  69.7697840   6.4806010
  60.4775670  76.2498340   7.9895360  59.7456790  76.7585150   8.3385460
  60.0800010  75.4328320   7.6884140  56.9153060  72.9252540   6.3947850
  56.9189120  72.4842490   5.5452390  57.8104180  73.2469870   6.5019670
  52.7655440  72.8079030   5.3542060  52.4255490  73.2854260   6.1109110
  52.0032760  72.3544150   4.9943160  60.9401580  71.7032020   7.4018300
  60.9574320  72.1540670   8.2460150  60.6917160  70.8037660   7.6151740
  64.3672330  69.1164200  13.2404680  64.6918100  68.3853860  13.7662660
  64.4028840  68.7977840  12.3385670  57.2161030  76.9854320   8.1413260
  57.5831160  76.5112890   8.8874600  57.0266090  77.8595890   8.4821600
  50.0801520  71.7298010   4.2706730  49.7948440  71.3653680   5.1085350
  50.0180380  70.9978470   3.6569870  55.0060400  76.0262960  10.4597470
  54.7017470  76.9054940  10.6847830  55.9606860  76.0862750  10.4954910
  51.0624130  76.8665700  11.6068830  50.7039070  77.5319550  12.1942170
  50.7678690  76.0349250  11.9781450  54.2637250  77.3249940  14.4908380
  53.9637390  77.4707120  13.5936200  55.0348490  76.7655230  14.3981770
  52.6378770  68.5967820   2.8234230  52.5093400  68.5885720   3.7719150
  51.8140790  68.9350910   2.4725240  49.6372700  70.3558940  12.2840930
  48.9231220  70.5555860  12.8893540  50.0567740  69.5798510  12.6555730
  61.1311480  72.8481250  10.0342380  61.4992300  72.0276460  10.3621950
  60.2709680  72.9083140  10.4498030  56.4657540  74.0824140   2.2587820
  55.7573690  74.5510480   2.7001430  56.7502020  73.4246150   2.8933010
  58.0913470  75.5020840  10.2580350  58.5898720  75.9766660  10.9232200
  58.2336420  74.5784360  10.4650380  60.4972970  70.8074800   3.6983610
  60.3740750  70.8260930   2.7493120  61.4457530  70.8553740   3.8182010
  65.2980330  71.7188800  11.1008740  64.7953930  72.4594200  11.4402550
  66.1136990  72.1072800  10.7845530  63.5902340  76.9621980   4.5470100
  62.6492480  76.9772210   4.7217790  63.9046410  76.1757940   4.9930400
  49.7901540  77.8981570  14.0263120  50.2940560  77.3188850  14.5979350
  49.0508960  78.1821800  14.5639490  51.8224620  76.0411160  14.9213190
  51.8629960  75.7425030  15.8298420  52.6770120  76.4418770  14.7620710
  53.7630430  74.6203260  12.8887680  53.2326890  74.1294210  12.2611020
  54.4318500  75.0487460  12.3545610  63.1330660  76.4268880  14.6568020
  63.7151430  75.6721200  14.5688500  63.3092430  76.9576320  13.8799500
  54.2502730  71.5865630  12.9684970  54.1559600  70.9686380  12.2435840
  53.6700120  72.3131920  12.7414880  57.0164170  70.1438870  10.0012360
  56.5681470  70.1663130   9.1557910  56.3829370  69.7457890  10.5982660
  59.7587620  76.7709380  12.0062640  59.8783830  76.1750520  12.7457480
  60.6181620  76.8079070  11.5863940  62.0975520  77.3246570  10.5825150
  61.5710740  77.8489190   9.9790290  62.4406860  77.9573960  11.2134880
  56.5256390  73.3130730  13.2638460  57.1156080  73.0046580  13.9516280
  55.7076630  72.8410480  13.4198360  61.3449820  72.9296540  13.4971480
  60.6565340  72.2678080  13.4321470  62.0655840  72.4834810  13.9419940
  49.8535280  77.2862830   4.3973310  49.1984120  77.0174470   3.7533010
  50.6913230  77.1767310   3.9475290  66.3015450  76.9928260   2.3167600
  65.9259050  76.2256190   1.8848890  65.5718570  77.3750960   2.8042530
  50.8911210  77.6715400   8.9376650  51.2584250  77.5842800   9.8172670
  50.3222030  76.9081950   8.8383510  65.6915070  76.1399780  11.9507120
  65.4601160  75.9112530  11.0505070  65.9519620  77.0599330  11.9052010
  50.4427210  74.5824490  12.8435070  49.5483260  74.5491250  13.1828780
  50.9824760  74.7811280  13.6086320  64.1303140  71.3656210  14.7286820
  65.0073320  71.3739610  15.1120820  64.1423980  70.6287050  14.1179170
  65.5766410  75.2185750   5.6174840  66.1003890  74.7248400   4.9865010
  66.1625830  75.3536110   6.3622410  65.7556130  75.3025620   9.1394390
  64.8058840  75.2689160   9.2539380  65.9369140  76.2125730   8.9044160
  50.9466920  68.8572820   7.1918290  51.5943110  68.3070200   6.7513450
  51.3668760  69.1115970   8.0134100  66.4953540  73.1120050   4.0904930
  66.3852820  72.9576090   5.0287200  67.2561130  72.5840990   3.8480340
  64.8419260  69.0514180  10.5487930  65.4791480  69.6648320  10.9147120
  64.9894150  69.0874840   9.6037160  50.6998920  69.0128490   9.9343610
  50.3513740  69.4692310  10.7001790  50.3686620  68.1185620  10.0166040
  58.2123740  70.2040370  13.4563030  58.1512630  70.7962200  14.2058440
  59.1524120  70.0966330  13.3113290  60.8498300  69.8610430  13.0955320
  61.4638710  70.1789720  12.4336400  61.3947860  69.3759020  13.7151180
  51.3719560  68.5404690  13.2094380  51.9202550  68.3592740  12.4460490
  51.4374870  67.7498800  13.7450690  61.5906340  68.4242570   9.4224610
  60.7166180  68.7577680   9.2197540  61.4817090  67.9515750  10.2476480
  62.4978320  70.6313440  10.8066330  62.1691680  69.8165200  10.4268060
  63.4460620  70.5883250  10.6832020  59.3381160  69.3412410   8.3617520
  58.5552950  69.8157910   8.6414280  59.0444090  68.4367240   8.2530700
  63.8902230  70.0435510   6.4066610  64.3310320  69.9880610   5.5588210
  63.6209820  70.9593520   6.4776790  65.7540800  69.6750750   4.4175430
  65.6929200  68.7311970   4.2706450  66.5332830  69.7830840   4.9628890
  57.2235380  71.7599160   3.8733550  56.4109890  71.3856050   3.5329430
  57.7277020  71.0044240   4.1754740  61.7260360  68.4241610   5.1116620
  62.3289730  68.9961820   5.5865140  60.9853350  68.9881050   4.8890520
  55.2484560  69.9099080   2.4778600  54.6187300  69.2086390   2.6448730
  54.7089700  70.6703210   2.2611760  55.3740120  69.1883060  14.9131090
  55.0924390  69.6916660  14.1491910  55.7559820  68.3904810  14.5473220
  61.9755580  68.6036640  15.4911560  61.8621030  68.9231250  16.3863080
  62.7925320  69.0049150  15.1948840  60.8813730  57.8485620  79.7263750
  60.8007780  56.9340230  79.4555460  60.4678150  58.3452690  79.0203460
  59.0131770  59.6264640  81.6073020  58.2373870  59.1465080  81.8971590
  59.6644700  58.9470290  81.4329180  53.0297600  59.9384450  82.4848780
  52.1982480  59.6833160  82.8845290  53.6378580  60.0095220  83.2206700
  63.0339200  64.0324830  80.3872150  62.5720730  63.2612070  80.7159320
  63.8464750  64.0590900  80.8924600  53.0098860  63.9724540  82.6806800
  53.3126900  63.0822280  82.5017020  53.7542450  64.5294760  82.4529050
  51.4389550  54.8986340  76.2691170  50.5506250  55.2402310  76.1671050
  51.7230740  54.6986660  75.3772000  49.4022560  57.4991990  82.1530870
  49.9738670  56.7314190  82.1534510  49.4024100  57.7980750  81.2437480
  59.2602510  66.3182840  80.0076140  58.6413950  66.7740340  79.4370580
  60.1154290  66.4734300  79.6065840  58.4540760  62.3021830  81.6143180
  58.3849040  61.3611770  81.4532310  59.2160620  62.3923240  82.1865750
  50.6447430  52.9076350  83.9399800  50.4650270  52.0102100  84.2202560
  50.2427510  53.4548220  84.6146750  59.4845930  55.1092210  81.8412110
  59.8610750  54.2364090  81.7285780  59.3865440  55.4450910  80.9502550
  53.6150940  53.4817840  77.3029550  53.7217690  54.3821570  77.6098310
  52.7043300  53.4335810  77.0124200  63.2670050  52.6042650  78.7740450
  64.0879670  52.1139220  78.8165930  63.3004130  53.1940310  79.5272290
  51.2634100  55.4036850  82.5482140  51.9444210  55.6675220  83.1669540
  50.9482150  54.5637720  82.8820150  55.4558670  56.4504210  81.6354730
  55.9636890  56.9485180  82.2759750  55.9871910  55.6739410  81.4594090
  67.5569600  54.6209400  85.3384080  66.8521770  55.0091110  84.8199190
  67.8227520  55.3159690  85.9405010  53.7394770  51.0902770  85.9018150
  53.7413210  51.6075160  85.0964050  52.9099080  50.6132950  85.8788080
  60.1265860  61.2022080  77.4008050  59.5083130  61.6671530  76.8370770
  60.6389110  61.8949560  77.8177560  54.9897620  60.7297950  84.0791650
  54.6567000  61.3566870  84.7212720  55.1664300  61.2559830  83.2993320
  63.5031530  54.5443030  81.5467990  62.7987100  54.8327920  82.1271100
  63.8643690  55.3543140  81.1867550  53.4210100  52.8012730  83.9088600
  53.7626910  53.6454780  83.6142470  52.4825910  52.9496470  84.0253940
  54.2016720  62.6978750  85.8940830  54.8190720  63.3729830  85.6125280
  53.3409840  63.1066730  85.8028330  49.4949060  61.8878610  74.7747680
  49.1177040  62.3765710  74.0432580  49.7522130  62.5603890  75.4054210
  65.1194310  64.1618160  83.8095470  64.4357830  64.8317270  83.8012140
  65.6588600  64.3598810  83.0440330  66.5718450  53.9897820  81.9377200
  65.6243360  54.0236800  82.0692630  66.8968440  54.8036770  82.3226560
  57.1037990  50.2895000  80.2333190  57.4112970  49.7341890  79.5168690
  56.1738690  50.4239460  80.0506180  62.6553050  66.0062290  82.5240650
  62.6680210  65.6024580  81.6562910  62.1028270  66.7809580  82.4202080
  63.9498470  62.7278510  77.6130820  63.8394800  61.7852840  77.7380240
  63.9466720  63.0894150  78.4993580  62.0538490  60.9092130  83.8523260
  62.4707280  60.6952240  83.0176720  62.7778310  61.1664920  84.4231880
  59.4918750  58.3543830  76.9693310  58.5648030  58.2881210  77.1981780
  59.6443570  59.2923960  76.8548550  59.4787830  54.6260830  73.9660470
  58.5391500  54.7874790  74.0512930  59.7971090  55.3446510  73.4196460
  66.0000590  59.3079350  83.9439500  65.1719220  59.3772440  83.4689630
  66.5951070  59.8933660  83.4755330  63.5216040  59.9164130  77.4728560
  62.9028460  59.5783680  76.8254860  63.5040490  59.2723890  78.1807750
  62.9642600  56.0948670  84.8894370  62.5513780  56.9202380  85.1434360
  62.2318550  55.5093710  84.6970730  55.0975390  58.8808570  79.7513040
  54.6932390  58.1685820  79.2558940  55.1838510  58.5361810  80.6401080
  55.5657090  62.5676130  81.9152250  55.2685380  61.9621600  81.2360030
  56.5156910  62.6053440  81.8041610  53.8104010  55.6551780  83.5312080
  54.3618600  55.7647120  82.7565330  54.3247520  56.0289380  84.2467310
  63.6542700  66.1408000  85.5775350  63.1773260  66.9480190  85.3847960
  62.9704490  65.4886330  85.7301560  61.6980740  59.1550940  74.4801310
  62.1374020  58.3173370  74.3339130  62.4109160  59.7880340  74.5665450
  59.8076120  64.0947010  78.4482550  60.2472030  64.8371340  78.0337940
  59.7463010  64.3373580  79.3721510  65.2797880  50.4093750  72.7942350
  64.9670540  50.5020580  73.6941420  66.0410350  50.9874780  72.7439780
  51.7980020  57.7753550  77.2519690  51.6777620  58.5015640  76.6400960
  51.4880910  57.0056460  76.7747600  49.4365390  60.9468690  83.0588330
  49.5145810  61.0817460  82.1144050  50.0507070  60.2384580  83.2516450
  50.6813020  62.6468880  79.4694510  50.2741100  62.7883470  78.6148110
  51.5726030  62.3629040  79.2665720  62.4746300  67.0816130  75.8045560
  62.3147440  66.7919070  76.7027390  62.3093010  66.3056260  75.2690790
  54.9534680  66.8614660  77.5817180  54.7777160  65.9450200  77.3684980
  54.0990420  67.2201950  77.8214980  62.1772430  64.5903690  74.3643560
  61.4837590  64.5880980  73.7045840  62.9195290  64.1663010  73.9337730
  61.7422360  66.2166400  78.4392050  62.1979310  65.4355780  78.7530670
  62.0814880  66.9273220  78.9833230  49.4924910  61.9882860  85.5982790
  49.6555950  61.5188220  84.7802160  49.9577360  61.4806420  86.2631630
  54.2643680  51.1188620  80.6343360  53.8211830  51.8998160  80.3027880
  54.8228670  51.4418510  81.3414300  57.3802500  50.7399320  75.5149190
  56.7556680  50.7359190  76.2402500  57.2932620  49.8730280  75.1185160
  56.3019580  51.6635950  82.4932960  56.5991910  52.5698780  82.4124980
  56.8505140  51.1754730  81.8792530  54.0557900  56.2422190  78.3624610
  53.8298820  56.0259360  79.2671230  53.2750430  56.6750650  78.0170580
  61.2855660  56.2485560  76.9615260  60.6864550  56.9721360  76.7778880
  61.8335270  56.1862340  76.1791710  59.8920530  54.8849100  78.9918540
  60.2850100  55.2021300  78.1787230  60.2537380  54.0060980  79.1063060
  48.9284700  51.4749900  81.2148740  48.6397750  52.0452760  81.9273720
  49.6730460  50.9954350  81.5779970  49.1154930  55.4170020  72.4251460
  49.0329600  56.3600780  72.5666450  48.7637990  55.2744930  71.5463810
  60.4775670  57.4754850  83.0869320  59.7456790  57.9841660  83.4359420
  60.0800010  56.6584830  82.7858100  56.9153060  54.1509050  81.4921810
  56.9189120  53.7099000  80.6426350  57.8104180  54.4726380  81.5993630
  52.7655440  54.0335540  80.4516020  52.4255490  54.5110770  81.2083070
  52.0032760  53.5800660  80.0917120  56.9773210  55.1521130  74.4828570
  57.0986030  55.1107610  75.4314390  56.5921720  56.0145280  74.3275300
  60.9401580  52.9288530  82.4992260  60.9574320  53.3797180  83.3434110
  60.6917160  52.0294170  82.7125700  55.9894710  57.4622270  73.8811870
  55.4211610  57.0140520  73.2547780  56.6983710  57.8215050  73.3477020
  57.2161030  58.2110830  83.2387220  57.5831160  57.7369400  83.9848560
  57.0266090  59.0852400  83.5795560  50.0801520  52.9554520  79.3680690
  49.7948440  52.5910190  80.2059310  50.0180380  52.2234980  78.7543830
  55.0060400  57.2519470  85.5571430  54.7017470  58.1311450  85.7821790
  55.9606860  57.3119260  85.5928870  53.5342190  61.4580460  76.1538280
  52.7604450  60.9178080  75.9937000  54.2636820  60.9387070  75.8156040
  64.2930170  60.4545820  81.9464670  65.0129290  60.9501110  81.5560780
  64.0911990  59.7763710  81.3018540  59.7540110  51.8483780  76.0894060
  58.9404720  51.3496950  76.0139370  59.5602060  52.6882030  75.6730410
  62.4688500  56.2203430  74.3856220  63.3568120  56.5320660  74.2107560
  62.4393590  55.3475680  73.9936800  53.5779590  61.1260840  79.7917090
  54.0958260  60.3229100  79.7373980  53.1263610  61.0639980  80.6333920
  58.4649090  62.3927120  75.0644390  58.8064790  63.1369350  74.5687710
  57.6361800  62.7058240  75.4269220  64.7402770  57.5315270  73.8536080
  64.6566490  57.9629490  73.0032520  65.4596960  57.9913620  74.2862900
  65.7690020  64.3857530  76.5818210  65.1266180  63.7313150  76.8561930
  65.3820680  64.7912620  75.8058880  61.3476500  61.7142960  80.4289900
  61.7000320  61.1171090  79.7691270  60.4638830  61.3887190  80.5998150
  57.4339780  62.4740650  77.8360310  58.1210910  63.0209860  78.2167900
  56.6472200  63.0181380  77.8709920  49.5732180  58.0913470  73.3277390
  50.4427030  58.3738270  73.6113310  49.0822500  58.9049340  73.2126200
  56.7366990  59.4786680  77.4485670  57.1929770  60.2891930  77.6745860
  56.3855200  59.1609820  78.2804160  59.0399600  64.9893020  84.6777970
  59.6841820  65.1952400  85.3551390  59.4029040  64.2281420  84.2248820
  52.6378770  49.8224330  77.9208190  52.5093400  49.8142230  78.8693110
  51.8140790  50.1607420  77.5699200  60.3131680  62.9925370  83.3955420
  60.9553910  62.2918530  83.5087590  60.8381030  63.7723810  83.2152310
  64.1587400  63.2773990  73.1194560  63.9324980  62.5604430  73.7119200
  63.7683600  63.0286430  72.2816310  49.9403430  67.3040850  73.8939020
  50.3001070  67.9030190  73.2396290  49.7995770  67.8500740  74.6674050
  63.7403650  61.1945930  74.7808720  63.4525350  61.6558620  75.5686600
  64.5355820  60.7343700  75.0492940  55.9572050  64.6872050  74.7112690
  55.9482150  65.4201740  74.0957200  55.0370410  64.4403630  74.8039650
  51.5578690  59.9086940  75.4559450  50.9506640  60.6485840  75.4654750
  52.0328040  59.9986300  74.6297650  61.1311480  54.0737760  85.1316340
  61.4992300  53.2532970  85.4595910  60.2709680  54.1339650  85.5471990
  64.4973510  53.0294700  75.9403900  63.8686670  53.1340370  75.2262130
  64.0025430  53.2491480  76.7297780  58.9431650  64.7500290  73.3737880
  59.0443630  64.5464280  72.4439860  58.0433390  64.4958570  73.5785660
  56.4657540  55.3080650  77.3561780  55.7573690  55.7766990  77.7975390
  56.7502020  54.6502660  77.9906970  58.0913470  56.7277350  85.3554310
  58.5898720  57.2023170  86.0206160  58.2336420  55.8040870  85.5624340
  60.4972970  52.0331310  78.7957570  60.3740750  52.0517440  77.8467080
  61.4457530  52.0810250  78.9155970  57.5849760  67.2686610  78.0685550
  57.8391260  67.2308000  77.1464920  56.6362240  67.1419940  78.0613800
  54.6692560  53.6165730  74.7312490  55.5183090  54.0535880  74.6652680
  54.3023830  53.9285990  75.5584550  63.5902340  58.1878490  79.6444060
  62.6492480  58.2028720  79.8191750  63.9046410  57.4014450  80.0904360
  53.5683980  59.8698090  73.2048020  54.3347250  59.7579450  73.7673450
  53.6458670  59.1736060  72.5524790  52.2630740  57.3023160  73.8880910
  52.3434330  56.3550670  73.9998310  53.1550490  57.6330040  73.9941570
  65.5927920  65.3587340  81.3198320  65.7175340  66.1818510  81.7922130
  66.4593480  65.1478070  80.9722470  53.0645450  67.4518550  80.9915450
  53.8007930  66.9034010  81.2624020  53.4486370  68.3174560  80.8521440
  49.9490930  63.5192120  76.8656960  49.0230710  63.7613260  76.8562370
  50.4147360  64.3466380  76.7441710  56.1747760  66.6248860  72.8141020
  56.9676370  66.9137690  72.3622810  55.6552110  66.1941030  72.1353500
  65.2277930  65.8518990  74.2377760  64.9419440  65.4384130  73.4231940
  65.0297480  66.7806700  74.1178280  56.6925160  61.8452270  72.6783370
  56.5875800  61.2304620  73.4044750  56.5249380  61.3218160  71.8946380
  59.9327890  60.9072300  73.2825360  59.3837990  61.3541600  73.9268100
  60.5547150  60.4021550  73.8063030  55.6003010  59.8663220  75.1790660
  56.0219430  59.7003090  76.0222050  55.7253850  59.0563450  74.6845800
  58.1130650  58.8900830  72.4267760  58.6336310  58.1749850  72.0608910
  58.7599050  59.5286700  72.7268270  57.0164170  51.3695380  85.0986320
  56.5681470  51.3919640  84.2531870  56.3829370  50.9714400  85.6956620
  57.4223720  60.2649710  85.7198760  57.8411830  61.1082440  85.5475000
  56.5032350  60.4021750  85.4905540  54.4961910  55.9396450  72.1248820
  54.2950970  55.0763810  72.4862160  54.3253960  55.8529810  71.1870420
  61.9750220  50.7504680  74.6535700  62.2552510  49.9072580  75.0095120
  61.2015950  50.9827790  75.1674450  53.2944710  53.0397070  72.1126700
  53.5970610  53.0464500  71.2045850  54.0339300  52.6894930  72.6094360
  56.5129640  51.9831690  73.0982900  56.1651640  51.3055680  72.5185350
  56.7142410  51.5221200  73.9126290  58.6778680  66.9712440  74.7169500
  59.5729470  67.3097410  74.7388260  58.7096310  66.2491850  74.0893780
  52.3174840  62.3439490  72.9456500  52.7549710  62.8869160  73.6014080
  52.8022570  61.5186440  72.9552840  49.5320640  65.1328520  80.3976760
  49.8623650  64.2649580  80.1655400  49.9611640  65.3387040  81.2281720
  54.1282560  63.4637530  78.0578730  53.8278100  63.3402500  78.9582640
  54.0220050  62.6046120  77.6494460  50.0210850  65.9999110  83.1358390
  49.5841840  66.1799910  83.9682540  50.5888530  66.7573730  82.9940110
  66.8974480  63.2433930  72.7605410  66.0667440  63.3110580  73.2312640
  67.0746310  64.1338050  72.4572270  66.3530940  59.9881410  75.2639610
  67.1149850  60.5578060  75.3699300  66.3685310  59.4208610  76.0347920
  49.8535280  58.5119340  79.4947270  49.1984120  58.2430980  78.8506970
  50.6913230  58.4023820  79.0449250  67.3590910  60.8431510  80.1081540
  67.7299740  60.0598830  79.7017510  67.9992840  61.5320610  79.9298840
  64.3424670  62.2268090  85.5211860  63.5284510  62.6565250  85.7837650
  64.7498870  62.8386500  84.9080910  66.4050110  60.2815780  72.4212130
  66.6798950  61.1894660  72.2931350  66.2160850  60.2178310  73.3574120
  62.8025720  53.3060630  73.7165760  63.2210600  53.1191610  72.8762420
  62.4961780  52.4539680  74.0268690  66.3015450  58.2184770  77.4141560
  65.9259050  57.4512700  76.9822850  65.5718570  58.6007470  77.9016490
  50.8911210  58.8971910  84.0350610  51.2584250  58.8099310  84.9146630
  50.3222030  58.1338460  83.9357470  49.0673360  55.7218270  75.4372600
  48.1637440  55.9848470  75.2624260  49.5513980  55.9929440  74.6572560
  65.5766410  56.4442260  80.7148800  66.1003890  55.9504910  80.0838970
  66.1625830  56.5792620  81.4596370  65.7556130  56.5282130  84.2368350
  64.8058840  56.4945670  84.3513340  65.9369140  57.4382240  84.0018120
  51.6100570  54.7783810  73.3466980  52.3192270  54.3567030  72.8614260
  50.8940510  54.8459040  72.7150330  51.2574730  50.8323140  72.3869630
  51.9802860  51.3732080  72.7050850  51.5299250  50.5586560  71.5111170
  65.0666380  55.7015610  76.6541210  65.5625500  55.4686480  77.4390090
  64.8682450  54.8627450  76.2378850  50.9466920  50.0829330  82.2892250
  51.5943110  49.5326710  81.8487410  51.3668760  50.3372480  83.1108060
  66.4953540  54.3376560  79.1878890  66.3852820  54.1832600  80.1261160
  67.2561130  53.8097500  78.9454300  64.8419260  50.2770690  85.6461890
  65.4791480  50.8904830  86.0121080  64.9894150  50.3131350  84.7011120
  67.3843810  52.1684480  72.4285030  68.3093120  52.0365660  72.2203320
  67.3619600  52.2477300  73.3821480  67.4582300  52.9395140  75.0541740
  66.6633800  52.8740260  75.5834650  67.6625580  53.8745780  75.0427090
  64.4000720  66.9786690  79.0480130  64.9959790  66.6571260  78.3714550
  64.6578870  66.5058510  79.8393400  50.6998920  50.2385000  85.0317570
  50.3513740  50.6948820  85.7975750  50.3686620  49.3442130  85.1140000
  56.0069320  64.9664190  84.7980480  55.7660680  65.2338750  83.9111000
  56.9471960  65.1369920  84.8531340  67.2673480  66.9858570  85.5991120
  66.7731760  67.3827440  84.8818250  66.6586770  66.3607780  85.9928400
  61.5906340  49.6499080  84.5198570  60.7166180  49.9834190  84.3171500
  61.4817090  49.1772260  85.3450440  62.4978320  51.8569950  85.9040290
  62.1691680  51.0421710  85.5242020  63.4460620  51.8139760  85.7805980
  64.9512930  67.6281990  82.8777860  64.4915900  68.3797800  82.5035880
  64.3225390  66.9088460  82.8192660  51.7763550  63.7225230  85.2676580
  51.0497610  63.1030520  85.2002530  51.8372700  64.1165840  84.3974660
  55.3808650  65.9370230  82.0525990  55.8973670  65.3257590  81.5274250
  56.0306030  66.4399010  82.5437000  58.1204150  66.8278720  82.8794970
  58.4081960  66.5733020  82.0027980  58.6327370  66.2756080  83.4700540
  59.3381160  50.5668920  83.4591480  58.5552950  51.0414420  83.7388240
  59.0444090  49.6623750  83.3504660  63.8902230  51.2692020  81.5040570
  64.3310320  51.2137120  80.6562170  63.6209820  52.1850030  81.5750750
  65.7540800  50.9007260  79.5149390  65.6929200  49.9568480  79.3680410
  66.5332830  51.0087350  80.0602850  50.0593550  67.0399620  78.4773340
  49.8915590  66.4070300  79.1755230  49.1928060  67.2459020  78.1267530
  50.6821570  50.8716400  75.9805200  51.4400930  50.9845280  75.4069230
  50.2198740  51.7085600  75.9348630  57.2235380  52.9855670  78.9707510
  56.4109890  52.6112560  78.6303390  57.7277020  52.2300750  79.2728700
  61.7260360  49.6498120  80.2090580  62.3289730  50.2218330  80.6839100
  60.9853350  50.2137560  79.9864480  64.8694960  50.0519680  75.4830860
  65.0645590  50.9503130  75.7498290  64.0824830  49.8206760  75.9763810
  51.6656250  65.7332850  75.9223480  51.1403870  66.1140880  75.2185440
  51.5900830  66.3583620  76.6433190  53.0546720  51.3980450  74.5207170
  53.5839480  50.6110250  74.3915120  53.6875040  52.0771640  74.7542700
  55.2484560  51.1355590  77.5752560  54.6187300  50.4342900  77.7422690
  54.7089700  51.8959720  77.3585720  66.4221570  67.2920390  77.2437420
  66.5973760  66.6058130  76.5998340  65.7243140  67.8167440  76.8514090
  54.2649220  67.6815230  74.7972730  54.9968040  67.3974510  74.2496620
  54.5242890  67.4428510  75.6872110  53.4264010  63.7979960  74.8019060
  52.7972890  64.2665060  75.3504890  53.5411840  62.9529180  75.2365250
  60.8813730  57.8485620  60.9520260  60.8007780  56.9340230  60.6811970
  60.4678150  58.3452690  60.2459970  59.0131770  59.6264640  62.8329530
  58.2373870  59.1465080  63.1228100  59.6644700  58.9470290  62.6585690
  53.0297600  59.9384450  63.7105290  52.1982480  59.6833160  64.1101800
  53.6378580  60.0095220  64.4463210  63.0339200  64.0324830  61.6128660
  62.5720730  63.2612070  61.9415830  63.8464750  64.0590900  62.1181110
  53.0098860  63.9724540  63.9063310  53.3126900  63.0822280  63.7273530
  53.7542450  64.5294760  63.6785560  51.4389550  54.8986340  57.4947680
  50.5506250  55.2402310  57.3927560  51.7230740  54.6986660  56.6028510
  49.4022560  57.4991990  63.3787380  49.9738670  56.7314190  63.3791020
  49.4024100  57.7980750  62.4693990  59.2602510  66.3182840  61.2332650
  58.6413950  66.7740340  60.6627090  60.1154290  66.4734300  60.8322350
  58.4540760  62.3021830  62.8399690  58.3849040  61.3611770  62.6788820
  59.2160620  62.3923240  63.4122260  50.6447430  52.9076350  65.1656310
  50.4650270  52.0102100  65.4459070  50.2427510  53.4548220  65.8403260
  59.4845930  55.1092210  63.0668620  59.8610750  54.2364090  62.9542290
  59.3865440  55.4450910  62.1759060  53.6150940  53.4817840  58.5286060
  53.7217690  54.3821570  58.8354820  52.7043300  53.4335810  58.2380710
  63.2670050  52.6042650  59.9996960  64.0879670  52.1139220  60.0422440
  63.3004130  53.1940310  60.7528800  51.2634100  55.4036850  63.7738650
  51.9444210  55.6675220  64.3926050  50.9482150  54.5637720  64.1076660
  55.4558670  56.4504210  62.8611240  55.9636890  56.9485180  63.5016260
  55.9871910  55.6739410  62.6850600  67.5569600  54.6209400  66.5640590
  66.8521770  55.0091110  66.0455700  67.8227520  55.3159690  67.1661520
  53.7394770  51.0902770  67.1274660  53.7413210  51.6075160  66.3220560
  52.9099080  50.6132950  67.1044590  60.1265860  61.2022080  58.6264560
  59.5083130  61.6671530  58.0627280  60.6389110  61.8949560  59.0434070
  54.9897620  60.7297950  65.3048160  54.6567000  61.3566870  65.9469230
  55.1664300  61.2559830  64.5249830  63.5031530  54.5443030  62.7724500
  62.7987100  54.8327920  63.3527610  63.8643690  55.3543140  62.4124060
  53.4210100  52.8012730  65.1345110  53.7626910  53.6454780  64.8398980
  52.4825910  52.9496470  65.2510450  54.2016720  62.6978750  67.1197340
  54.8190720  63.3729830  66.8381790  53.3409840  63.1066730  67.0284840
  49.4949060  61.8878610  56.0004190  49.1177040  62.3765710  55.2689090
  49.7522130  62.5603890  56.6310720  65.1194310  64.1618160  65.0351980
  64.4357830  64.8317270  65.0268650  65.6588600  64.3598810  64.2696840
  66.5718450  53.9897820  63.1633710  65.6243360  54.0236800  63.2949140
  66.8968440  54.8036770  63.5483070  57.1037990  50.2895000  61.4589700
  57.4112970  49.7341890  60.7425200  56.1738690  50.4239460  61.2762690
  62.6553050  66.0062290  63.7497160  62.6680210  65.6024580  62.8819420
  62.1028270  66.7809580  63.6458590  63.9498470  62.7278510  58.8387330
  63.8394800  61.7852840  58.9636750  63.9466720  63.0894150  59.7250090
  62.0538490  60.9092130  65.0779770  62.4707280  60.6952240  64.2433230
  62.7778310  61.1664920  65.6488390  59.4918750  58.3543830  58.1949820
  58.5648030  58.2881210  58.4238290  59.6443570  59.2923960  58.0805060
  59.4787830  54.6260830  55.1916980  58.5391500  54.7874790  55.2769440
  59.7971090  55.3446510  54.6452970  66.0000590  59.3079350  65.1696010
  65.1719220  59.3772440  64.6946140  66.5951070  59.8933660  64.7011840
  63.5216040  59.9164130  58.6985070  62.9028460  59.5783680  58.0511370
  63.5040490  59.2723890  59.4064260  62.9642600  56.0948670  66.1150880
  62.5513780  56.9202380  66.3690870  62.2318550  55.5093710  65.9227240
  55.0975390  58.8808570  60.9769550  54.6932390  58.1685820  60.4815450
  55.1838510  58.5361810  61.8657590  55.5657090  62.5676130  63.1408760
  55.2685380  61.9621600  62.4616540  56.5156910  62.6053440  63.0298120
  53.8104010  55.6551780  64.7568590  54.3618600  55.7647120  63.9821840
  54.3247520  56.0289380  65.4723820  63.6542700  66.1408000  66.8031860
  63.1773260  66.9480190  66.6104470  62.9704490  65.4886330  66.9558070
  54.6575520  62.3057820  69.7916560  53.7604050  62.5297790  70.0389960
  54.6828390  62.4292760  68.8427960  61.6980740  59.1550940  55.7057820
  62.1374020  58.3173370  55.5595640  62.4109160  59.7880340  55.7921960
  53.4846740  59.1771140  68.3673930  53.3454510  60.0493940  68.7361330
  52.6028100  58.8343950  68.2221870  59.8076120  64.0947010  59.6739060
  60.2472030  64.8371340  59.2594450  59.7463010  64.3373580  60.5978020
  55.2827090  65.1192840  70.5759080  55.2542520  65.5235790  69.7087510
  55.1192060  64.1903200  70.4130680  65.2797880  50.4093750  54.0198860
  64.9670540  50.5020580  54.9197930  66.0410350  50.9874780  53.9696290
  51.7980020  57.7753550  58.4776200  51.6777620  58.5015640  57.8657470
  51.4880910  57.0056460  58.0004110  67.2341910  65.9019940  71.8723250
  67.7101630  66.3802830  72.5512330  67.8549070  65.8337430  71.1468750
  49.4365390  60.9468690  64.2844840  49.5145810  61.0817460  63.3400560
  50.0507070  60.2384580  64.4772960  50.6813020  62.6468880  60.6951020
  50.2741100  62.7883470  59.8404620  51.5726030  62.3629040  60.4922230
  66.6375160  63.0932790  69.0323260  66.7638220  62.8544670  68.1140440
  66.6796540  62.2617330  69.5045340  60.4991900  66.7960790  67.6018070
  61.0136570  66.7068800  68.4040500  59.6560980  67.1420490  67.8945980
  62.4746300  67.0816130  57.0302070  62.3147440  66.7919070  57.9283900
  62.3093010  66.3056260  56.4947300  54.9534680  66.8614660  58.8073690
  54.7777160  65.9450200  58.5941490  54.0990420  67.2201950  59.0471490
  62.1772430  64.5903690  55.5900070  61.4837590  64.5880980  54.9302350
  62.9195290  64.1663010  55.1594240  61.7422360  66.2166400  59.6648560
  62.1979310  65.4355780  59.9787180  62.0814880  66.9273220  60.2089740
  66.4899170  55.1465250  69.9973000  65.8743440  55.6544920  69.4688460
  66.1695590  54.2463580  69.9398940  49.4924910  61.9882860  66.8239300
  49.6555950  61.5188220  66.0058670  49.9577360  61.4806420  67.4888140
  54.2643680  51.1188620  61.8599870  53.8211830  51.8998160  61.5284390
  54.8228670  51.4418510  62.5670810  58.5513490  53.9857140  67.4635190
  58.0892860  54.1940160  68.2755130  58.1491600  53.1716490  67.1605860
  63.5518000  55.2066090  68.5931850  62.7011590  54.9071840  68.9140920
  63.3919790  55.4508100  67.6815670  60.6467710  56.7067840  70.6930640
  60.9721120  55.8731590  70.3532870  61.4348040  57.2296360  70.8408970
  57.3802500  50.7399320  56.7405700  56.7556680  50.7359190  57.4659010
  57.2932620  49.8730280  56.3441670  56.3019580  51.6635950  63.7189470
  56.5991910  52.5698780  63.6381490  56.8505140  51.1754730  63.1049040
  54.0557900  56.2422190  59.5881120  53.8298820  56.0259360  60.4927740
  53.2750430  56.6750650  59.2427090  61.2855660  56.2485560  58.1871770
  60.6864550  56.9721360  58.0035390  61.8335270  56.1862340  57.4048220
  56.4957110  57.1407770  70.2541390  56.4000710  56.2002500  70.1041790
  57.3389090  57.3622840  69.8589460  59.8920530  54.8849100  60.2175050
  60.2850100  55.2021300  59.4043740  60.2537380  54.0060980  60.3319570
  51.6267650  53.5521440  68.4075170  51.2331040  54.3996650  68.6147950
  50.9386050  52.9147810  68.5983810  58.2012700  53.6356410  71.4771910
  57.5111020  53.4428610  72.1118000  58.9445000  53.9191050  72.0096210
  48.9284700  51.4749900  62.4405250  48.6397750  52.0452760  63.1530230
  49.6730460  50.9954350  62.8036480  49.1154930  55.4170020  53.6507970
  49.0329600  56.3600780  53.7922960  48.7637990  55.2744930  52.7720320
  60.4775670  57.4754850  64.3125830  59.7456790  57.9841660  64.6615930
  60.0800010  56.6584830  64.0114610  56.9153060  54.1509050  62.7178320
  56.9189120  53.7099000  61.8682860  57.8104180  54.4726380  62.8250140
  52.7655440  54.0335540  61.6772530  52.4255490  54.5110770  62.4339580
  52.0032760  53.5800660  61.3173630  56.9773210  55.1521130  55.7085080
  57.0986030  55.1107610  56.6570900  56.5921720  56.0145280  55.5531810
  60.9401580  52.9288530  63.7248770  60.9574320  53.3797180  64.5690620
  60.6917160  52.0294170  63.9382210  55.9894710  57.4622270  55.1068380
  55.4211610  57.0140520  54.4804290  56.6983710  57.8215050  54.5733530
  64.3672330  50.3420710  69.5635150  64.6918100  49.6110370  70.0893130
  64.4028840  50.0234350  68.6616140  51.0663890  61.3634290  68.9835110
  50.6818680  60.7227960  69.5818070  51.3776080  62.0670410  69.5529840
  57.2161030  58.2110830  64.4643730  57.5831160  57.7369400  65.2105070
  57.0266090  59.0852400  64.8052070  50.0801520  52.9554520  60.5937200
  49.7948440  52.5910190  61.4315820  50.0180380  52.2234980  59.9800340
  55.0060400  57.2519470  66.7827940  54.7017470  58.1311450  67.0078300
  55.9606860  57.3119260  66.8185380  53.5342190  61.4580460  57.3794790
  52.7604450  60.9178080  57.2193510  54.2636820  60.9387070  57.0412550
  64.2930170  60.4545820  63.1721180  65.0129290  60.9501110  62.7817290
  64.0911990  59.7763710  62.5275050  59.7540110  51.8483780  57.3150570
  58.9404720  51.3496950  57.2395880  59.5602060  52.6882030  56.8986920
  59.6748970  60.5254880  69.0590180  59.6086280  59.6050550  68.8047770
  59.0454110  60.6230320  69.7734820  62.4688500  56.2203430  55.6112730
  63.3568120  56.5320660  55.4364070  62.4393590  55.3475680  55.2193310
  53.5779590  61.1260840  61.0173600  54.0958260  60.3229100  60.9630490
  53.1263610  61.0639980  61.8590430  58.4649090  62.3927120  56.2900900
  58.8064790  63.1369350  55.7944220  57.6361800  62.7058240  56.6525730
  51.0624130  58.0922210  67.9299300  50.7039070  58.7576060  68.5172640
  50.7678690  57.2605760  68.3011920  54.2637250  58.5506450  70.8138850
  53.9637390  58.6963630  69.9166670  55.0348490  57.9911740  70.7212240
  59.6065700  63.3475450  68.8093980  59.6210240  62.4156410  68.5912890
  58.8990800  63.4335210  69.4483750  64.7402770  57.5315270  55.0792590
  64.6566490  57.9629490  54.2289030  65.4596960  57.9913620  55.5119410
  65.8176910  59.9882790  68.1562560  65.0925100  60.5811570  67.9591950
  66.3452370  59.9806330  67.3575930  65.7690020  64.3857530  57.8074720
  65.1266180  63.7313150  58.0818440  65.3820680  64.7912620  57.0315390
  61.3476500  61.7142960  61.6546410  61.7000320  61.1171090  60.9947780
  60.4638830  61.3887190  61.8254660  57.4339780  62.4740650  59.0616820
  58.1210910  63.0209860  59.4424410  56.6472200  63.0181380  59.0966430
  49.5732180  58.0913470  54.5533900  50.4427030  58.3738270  54.8369820
  49.0822500  58.9049340  54.4382710  56.7366990  59.4786680  58.6742180
  57.1929770  60.2891930  58.9002370  56.3855200  59.1609820  59.5060670
  59.0399600  64.9893020  65.9034480  59.6841820  65.1952400  66.5807900
  59.4029040  64.2281420  65.4505330  52.6378770  49.8224330  59.1464700
  52.5093400  49.8142230  60.0949620  51.8140790  50.1607420  58.7955710
  60.3131680  62.9925370  64.6211930  60.9553910  62.2918530  64.7344100
  60.8381030  63.7723810  64.4408820  64.1587400  63.2773990  54.3451070
  63.9324980  62.5604430  54.9375710  63.7683600  63.0286430  53.5072820
  62.0869300  63.7920270  67.8247990  62.4225540  64.3786960  68.5025910
  61.1669640  63.6612980  68.0545780  49.9403430  67.3040850  55.1195530
  50.3001070  67.9030190  54.4652800  49.7995770  67.8500740  55.8930560
  49.6372700  51.5815450  68.6071400  48.9231220  51.7812370  69.2124010
  50.0567740  50.8055020  68.9786200  63.7403650  61.1945930  56.0065230
  63.4525350  61.6558620  56.7943110  64.5355820  60.7343700  56.2749450
  49.9245290  65.5695710  69.5937930  50.0336410  64.6290450  69.4533320
  49.2725850  65.8350460  68.9451660  57.9157880  63.8411600  70.9936050
  57.5954750  63.1220840  71.5381740  57.2416240  64.5166670  71.0672110
  55.9572050  64.6872050  55.9369200  55.9482150  65.4201740  55.3213710
  55.0370410  64.4403630  56.0296160  51.5578690  59.9086940  56.6815960
  50.9506640  60.6485840  56.6911260  52.0328040  59.9986300  55.8554160
  61.1311480  54.0737760  66.3572850  61.4992300  53.2532970  66.6852420
  60.2709680  54.1339650  66.7728500  64.4973510  53.0294700  57.1660410
  63.8686670  53.1340370  56.4518640  64.0025430  53.2491480  57.9554290
  58.9431650  64.7500290  54.5994390  59.0443630  64.5464280  53.6696370
  58.0433390  64.4958570  54.8042170  56.4657540  55.3080650  58.5818290
  55.7573690  55.7766990  59.0231900  56.7502020  54.6502660  59.2163480
  58.0913470  56.7277350  66.5810820  58.5898720  57.2023170  67.2462670
  58.2336420  55.8040870  66.7880850  60.4972970  52.0331310  60.0214080
  60.3740750  52.0517440  59.0723590  61.4457530  52.0810250  60.1412480
  57.5849760  67.2686610  59.2942060  57.8391260  67.2308000  58.3721430
  56.6362240  67.1419940  59.2870310  54.6692560  53.6165730  55.9569000
  55.5183090  54.0535880  55.8909190  54.3023830  53.9285990  56.7841060
  65.2980330  52.9445310  67.4239210  64.7953930  53.6850710  67.7633020
  66.1136990  53.3329310  67.1076000  63.5902340  58.1878490  60.8700570
  62.6492480  58.2028720  61.0448260  63.9046410  57.4014450  61.3160870
  53.5683980  59.8698090  54.4304530  54.3347250  59.7579450  54.9929960
  53.6458670  59.1736060  53.7781300  52.2630740  57.3023160  55.1137420
  52.3434330  56.3550670  55.2254820  53.1550490  57.6330040  55.2198080
  65.5927920  65.3587340  62.5454830  65.7175340  66.1818510  63.0178640
  66.4593480  65.1478070  62.1978980  53.0645450  67.4518550  62.2171960
  53.8007930  66.9034010  62.4880530  53.4486370  68.3174560  62.0777950
  49.9490930  63.5192120  58.0913470  49.0230710  63.7613260  58.0818880
  50.4147360  64.3466380  57.9698220  52.0703730  66.6364620  71.4057540
  52.8716460  66.9576670  71.8192940  51.5555550  66.2760200  72.1277450
  56.1747760  66.6248860  54.0397530  56.9676370  66.9137690  53.5879320
  55.6552110  66.1941030  53.3610010  60.9068360  62.7444490  71.3532950
  60.3006520  62.7676090  70.6128700  60.6022470  62.0127530  71.8900200
  62.3368730  66.4724780  69.9642360  63.2890480  66.3882800  69.9142600
  62.1896950  67.1366490  70.6376150  65.2277930  65.8518990  55.4634270
  64.9419440  65.4384130  54.6488450  65.0297480  66.7806700  55.3434790
  49.7901540  59.1238080  70.3493590  50.2940560  58.5445360  70.9209820
  49.0508960  59.4078310  70.8869960  56.6925160  61.8452270  53.9039880
  56.5875800  61.2304620  54.6301260  56.5249380  61.3218160  53.1202890
  56.8439480  60.5309070  69.8829110  56.0785150  61.0994070  69.7983780
  57.0255440  60.2385280  68.9897340  59.9327890  60.9072300  54.5081870
  59.3837990  61.3541600  55.1524610  60.5547150  60.4021550  55.0319540
  63.9862830  62.2614400  70.4404130  64.7272300  62.5990160  69.9371590
  63.2235510  62.4306460  69.8873900  51.8224620  57.2667670  71.2443660
  51.8629960  56.9681540  72.1528890  52.6770120  57.6675280  71.0851180
  55.6003010  59.8663220  56.4047170  56.0219430  59.7003090  57.2478560
  55.7253850  59.0563450  55.9102310  53.7630430  55.8459770  69.2118150
  53.2326890  55.3550720  68.5841490  54.4318500  56.2743970  68.6776080
  58.1130650  58.8900830  53.6524270  58.6336310  58.1749850  53.2865420
  58.7599050  59.5286700  53.9524780  62.6608490  60.3129230  68.9759340
  63.0749510  60.4674310  69.8249760  61.7259490  60.4384450  69.1385120
  63.1330660  57.6525390  70.9798490  63.7151430  56.8977710  70.8918970
  63.3092430  58.1832830  70.2029970  54.2502730  52.8122140  69.2915440
  54.1559600  52.1942890  68.5666310  53.6700120  53.5388430  69.0645350
  57.0164170  51.3695380  66.3242830  56.5681470  51.3919640  65.4788380
  56.3829370  50.9714400  66.9213130  57.4223720  60.2649710  66.9455270
  57.8411830  61.1082440  66.7731510  56.5032350  60.4021750  66.7162050
  59.7587620  57.9965890  68.3293110  59.8783830  57.4007030  69.0687950
  60.6181620  58.0335580  67.9094410  62.0975520  58.5503080  66.9055620
  61.5710740  59.0745700  66.3020760  62.4406860  59.1830470  67.5365350
  54.4961910  55.9396450  53.3505330  54.2950970  55.0763810  53.7118670
  54.3253960  55.8529810  52.4126930  55.2731140  66.5702720  68.0613000
  54.7352230  67.2948780  67.7421700  55.5265100  66.0933060  67.2710340
  56.5256390  54.5387240  69.5868930  57.1156080  54.2303090  70.2746750
  55.7076630  54.0666990  69.7428830  61.3449820  54.1553050  69.8201950
  60.6565340  53.4934590  69.7551940  62.0655840  53.7091320  70.2650410
  61.9750220  50.7504680  55.8792210  62.2552510  49.9072580  56.2351630
  61.2015950  50.9827790  56.3930960  53.2944710  53.0397070  53.3383210
  53.5970610  53.0464500  52.4302360  54.0339300  52.6894930  53.8350870
  58.1293350  67.8053930  68.3199650  58.0552050  68.7089070  68.6272020
  57.2272190  67.4865830  68.2921720  56.5129640  51.9831690  54.3239410
  56.1651640  51.3055680  53.7441860  56.7142410  51.5221200  55.1382800
  58.6778680  66.9712440  55.9426010  59.5729470  67.3097410  55.9644770
  58.7096310  66.2491850  55.3150290  52.3174840  62.3439490  54.1713010
  52.7549710  62.8869160  54.8270590  52.8022570  61.5186440  54.1809350
  49.5320640  65.1328520  61.6233270  49.8623650  64.2649580  61.3911910
  49.9611640  65.3387040  62.4538230  54.1282560  63.4637530  59.2835240
  53.8278100  63.3402500  60.1839150  54.0220050  62.6046120  58.8750970
  50.0210850  65.9999110  64.3614900  49.5841840  66.1799910  65.1939050
  50.5888530  66.7573730  64.2196620  65.6573030  65.5016110  68.6492210
  65.0575020  65.5608670  67.9056130  65.7866930  64.5621090  68.7789060
  66.8974480  63.2433930  53.9861920  66.0667440  63.3110580  54.4569150
  67.0746310  64.1338050  53.6828780  66.3530940  59.9881410  56.4896120
  67.1149850  60.5578060  56.5955810  66.3685310  59.4208610  57.2604430
  49.8535280  58.5119340  60.7203780  49.1984120  58.2430980  60.0763480
  50.6913230  58.4023820  60.2705760  67.3590910  60.8431510  61.3338050
  67.7299740  60.0598830  60.9274020  67.9992840  61.5320610  61.1555350
  64.3424670  62.2268090  66.7468370  63.5284510  62.6565250  67.0094160
  64.7498870  62.8386500  66.1337420  66.4050110  60.2815780  53.6468640
  66.6798950  61.1894660  53.5187860  66.2160850  60.2178310  54.5830630
  62.8025720  53.3060630  54.9422270  63.2210600  53.1191610  54.1018930
  62.4961780  52.4539680  55.2525200  66.3015450  58.2184770  58.6398070
  65.9259050  57.4512700  58.2079360  65.5718570  58.6007470  59.1273000
  50.8911210  58.8971910  65.2607120  51.2584250  58.8099310  66.1403140
  50.3222030  58.1338460  65.1613980  65.6915070  57.3656290  68.2737590
  65.4601160  57.1369040  67.3735540  65.9519620  58.2855840  68.2282480
  50.4427210  55.8081000  69.1665540  49.5483260  55.7747760  69.5059250
  50.9824760  56.0067790  69.9316790  64.1303140  52.5912720  71.0517290
  65.0073320  52.5996120  71.4351290  64.1423980  51.8543560  70.4409640
  49.0673360  55.7218270  56.6629110  48.1637440  55.9848470  56.4880770
  49.5513980  55.9929440  55.8829070  65.5766410  56.4442260  61.9405310
  66.1003890  55.9504910  61.3095480  66.1625830  56.5792620  62.6852880
  65.7556130  56.5282130  65.4624860  64.8058840  56.4945670  65.5769850
  65.9369140  57.4382240  65.2274630  51.6100570  54.7783810  54.5723490
  52.3192270  54.3567030  54.0870770  50.8940510  54.8459040  53.9406840
  51.2574730  50.8323140  53.6126140  51.9802860  51.3732080  53.9307360
  51.5299250  50.5586560  52.7367680  65.0666380  55.7015610  57.8797720
  65.5625500  55.4686480  58.6646600  64.8682450  54.8627450  57.4635360
  50.9466920  50.0829330  63.5148760  51.5943110  49.5326710  63.0743920
  51.3668760  50.3372480  64.3364570  66.4953540  54.3376560  60.4135400
  66.3852820  54.1832600  61.3517670  67.2561130  53.8097500  60.1710810
  64.8419260  50.2770690  66.8718400  65.4791480  50.8904830  67.2377590
  64.9894150  50.3131350  65.9267630  67.3843810  52.1684480  53.6541540
  68.3093120  52.0365660  53.4459830  67.3619600  52.2477300  54.6077990
  67.4582300  52.9395140  56.2798250  66.6633800  52.8740260  56.8091160
  67.6625580  53.8745780  56.2683600  64.4000720  66.9786690  60.2736640
  64.9959790  66.6571260  59.5971060  64.6578870  66.5058510  61.0649910
  50.6998920  50.2385000  66.2574080  50.3513740  50.6948820  67.0232260
  50.3686620  49.3442130  66.3396510  52.3063290  63.4104600  70.4227270
  52.2632920  63.0397510  71.3041730  52.4374300  64.3482170  70.5629090
  56.0069320  64.9664190  66.0236990  55.7660680  65.2338750  65.1367510
  56.9471960  65.1369920  66.0787850  58.2123740  51.4296880  69.7793500
  58.1512630  52.0218710  70.5288910  59.1524120  51.3222840  69.6343760
  60.8498300  51.0866940  69.4185790  61.4638710  51.4046230  68.7566870
  61.3947860  50.6015530  70.0381650  67.2673480  66.9858570  66.8247630
  66.7731760  67.3827440  66.1074760  66.6586770  66.3607780  67.2184910
  51.3719560  49.7661200  69.5324850  51.9202550  49.5849250  68.7690960
  51.4374870  48.9755310  70.0681160  52.1451320  66.3566850  67.5425050
  51.5511640  66.2251550  68.2815090  52.1375160  65.5204990  67.0767150
  61.5906340  49.6499080  65.7455080  60.7166180  49.9834190  65.5428010
  61.4817090  49.1772260  66.5706950  62.4978320  51.8569950  67.1296800
  62.1691680  51.0421710  66.7498530  63.4460620  51.8139760  67.0062490
  64.9512930  67.6281990  64.1034370  64.4915900  68.3797800  63.7292390
  64.3225390  66.9088460  64.0449170  51.7763550  63.7225230  66.4933090
  51.0497610  63.1030520  66.4259040  51.8372700  64.1165840  65.6231170
  55.3808650  65.9370230  63.2782500  55.8973670  65.3257590  62.7530760
  56.0306030  66.4399010  63.7693510  58.1204150  66.8278720  64.1051480
  58.4081960  66.5733020  63.2284490  58.6327370  66.2756080  64.6957050
  59.3381160  50.5668920  64.6847990  58.5552950  51.0414420  64.9644750
  59.0444090  49.6623750  64.5761170  63.8902230  51.2692020  62.7297080
  64.3310320  51.2137120  61.8818680  63.6209820  52.1850030  62.8007260
  65.7540800  50.9007260  60.7405900  65.6929200  49.9568480  60.5936920
  66.5332830  51.0087350  61.2859360  50.0593550  67.0399620  59.7029850
  49.8915590  66.4070300  60.4011740  49.1928060  67.2459020  59.3524040
  50.6821570  50.8716400  57.2061710  51.4400930  50.9845280  56.6325740
  50.2198740  51.7085600  57.1605140  57.2235380  52.9855670  60.1964020
  56.4109890  52.6112560  59.8559900  57.7277020  52.2300750  60.4985210
  61.7260360  49.6498120  61.4347090  62.3289730  50.2218330  61.9095610
  60.9853350  50.2137560  61.2120990  64.8694960  50.0519680  56.7087370
  65.0645590  50.9503130  56.9754800  64.0824830  49.8206760  57.2020320
  51.6656250  65.7332850  57.1479990  51.1403870  66.1140880  56.4441950
  51.5900830  66.3583620  57.8689700  53.0546720  51.3980450  55.7463680
  53.5839480  50.6110250  55.6171630  53.6875040  52.0771640  55.9799210
  55.2484560  51.1355590  58.8009070  54.6187300  50.4342900  58.9679200
  54.7089700  51.8959720  58.5842230  58.1876510  67.7494820  71.4719680
  59.1143820  67.5139090  71.5155640  58.1726940  68.5766820  70.9905710
  66.4221570  67.2920390  58.4693930  66.5973760  66.6058130  57.8254850
  65.7243140  67.8167440  58.0770600  55.3740120  50.4139570  71.2361560
  55.0924390  50.9173170  70.4722380  55.7559820  49.6161320  70.8703690
  54.2649220  67.6815230  56.0229240  54.9968040  67.3974510  55.4753130
  54.5242890  67.4428510  56.9128620  53.4264010  63.7979960  56.0275570
  52.7972890  64.2665060  56.5761400  53.5411840  62.9529180  56.4621760
  61.9755580  49.8293150  71.8142030  61.8621030  50.1487760  72.7093550
  62.7925320  50.2305660  71.5179310  64.7554070  66.9764680  71.2960720
  65.5479390  66.4813910  71.0886680  65.0487220  67.6554820  71.9036330
  60.8813730  57.8485620  42.1776770  60.8007780  56.9340230  41.9068480
  60.4678150  58.3452690  41.4716480  59.0131770  59.6264640  44.0586040
  58.2373870  59.1465080  44.3484610  59.6644700  58.9470290  43.8842200
  53.0297600  59.9384450  44.9361800  52.1982480  59.6833160  45.3358310
  53.6378580  60.0095220  45.6719720  63.0339200  64.0324830  42.8385170
  62.5720730  63.2612070  43.1672340  63.8464750  64.0590900  43.3437620
  53.0098860  63.9724540  45.1319820  53.3126900  63.0822280  44.9530040
  53.7542450  64.5294760  44.9042070  49.4022560  57.4991990  44.6043890
  49.9738670  56.7314190  44.6047530  49.4024100  57.7980750  43.6950500
  59.2602510  66.3182840  42.4589160  58.6413950  66.7740340  41.8883600
  60.1154290  66.4734300  42.0578860  58.4540760  62.3021830  44.0656200
  58.3849040  61.3611770  43.9045330  59.2160620  62.3923240  44.6378770
  59.4845930  55.1092210  44.2925130  59.8610750  54.2364090  44.1798800
  59.3865440  55.4450910  43.4015570  63.2670050  52.6042650  41.2253470
  64.0879670  52.1139220  41.2678950  63.3004130  53.1940310  41.9785310
  55.4558670  56.4504210  44.0867750  55.9636890  56.9485180  44.7272770
  55.9871910  55.6739410  43.9107110  67.5569600  54.6209400  47.7897100
  66.8521770  55.0091110  47.2712210  67.8227520  55.3159690  48.3918030
  53.7394770  51.0902770  48.3531170  53.7413210  51.6075160  47.5477070
  52.9099080  50.6132950  48.3301100  60.1265860  61.2022080  39.8521070
  59.5083130  61.6671530  39.2883790  60.6389110  61.8949560  40.2690580
  54.9897620  60.7297950  46.5304670  54.6567000  61.3566870  47.1725740
  55.1664300  61.2559830  45.7506340  63.5031530  54.5443030  43.9981010
  62.7987100  54.8327920  44.5784120  63.8643690  55.3543140  43.6380570
  54.2016720  62.6978750  48.3453850  54.8190720  63.3729830  48.0638300
  53.3409840  63.1066730  48.2541350  49.4949060  61.8878610  37.2260700
  49.1177040  62.3765710  36.4945600  49.7522130  62.5603890  37.8567230
  65.1194310  64.1618160  46.2608490  64.4357830  64.8317270  46.2525160
  65.6588600  64.3598810  45.4953350  66.5718450  53.9897820  44.3890220
  65.6243360  54.0236800  44.5205650  66.8968440  54.8036770  44.7739580
  62.6553050  66.0062290  44.9753670  62.6680210  65.6024580  44.1075930
  62.1028270  66.7809580  44.8715100  63.9498470  62.7278510  40.0643840
  63.8394800  61.7852840  40.1893260  63.9466720  63.0894150  40.9506600
  62.0538490  60.9092130  46.3036280  62.4707280  60.6952240  45.4689740
  62.7778310  61.1664920  46.8744900  59.4918750  58.3543830  39.4206330
  58.5648030  58.2881210  39.6494800  59.6443570  59.2923960  39.3061570
  59.4787830  54.6260830  36.4173490  58.5391500  54.7874790  36.5025950
  59.7971090  55.3446510  35.8709480  66.0000590  59.3079350  46.3952520
  65.1719220  59.3772440  45.9202650  66.5951070  59.8933660  45.9268350
  63.5216040  59.9164130  39.9241580  62.9028460  59.5783680  39.2767880
  63.5040490  59.2723890  40.6320770  62.9642600  56.0948670  47.3407390
  62.5513780  56.9202380  47.5947380  62.2318550  55.5093710  47.1483750
  55.0975390  58.8808570  42.2026060  54.6932390  58.1685820  41.7071960
  55.1838510  58.5361810  43.0914100  55.5657090  62.5676130  44.3665270
  55.2685380  61.9621600  43.6873050  56.5156910  62.6053440  44.2554630
  53.8104010  55.6551780  45.9825100  54.3618600  55.7647120  45.2078350
  54.3247520  56.0289380  46.6980330  63.6542700  66.1408000  48.0288370
  63.1773260  66.9480190  47.8360980  62.9704490  65.4886330  48.1814580
  54.6575520  62.3057820  51.0173070  53.7604050  62.5297790  51.2646470
  54.6828390  62.4292760  50.0684470  61.6980740  59.1550940  36.9314330
  62.1374020  58.3173370  36.7852150  62.4109160  59.7880340  37.0178470
  53.4846740  59.1771140  49.5930440  53.3454510  60.0493940  49.9617840
  52.6028100  58.8343950  49.4478380  59.8076120  64.0947010  40.8995570
  60.2472030  64.8371340  40.4850960  59.7463010  64.3373580  41.8234530
  55.2827090  65.1192840  51.8015590  55.2542520  65.5235790  50.9344020
  55.1192060  64.1903200  51.6387190  65.2797880  50.4093750  35.2455370
  64.9670540  50.5020580  36.1454440  66.0410350  50.9874780  35.1952800
  67.2341910  65.9019940  53.0979760  67.7101630  66.3802830  53.7768840
  67.8549070  65.8337430  52.3725260  49.4365390  60.9468690  45.5101350
  49.5145810  61.0817460  44.5657070  50.0507070  60.2384580  45.7029470
  50.6813020  62.6468880  41.9207530  50.2741100  62.7883470  41.0661130
  51.5726030  62.3629040  41.7178740  66.6375160  63.0932790  50.2579770
  66.7638220  62.8544670  49.3396950  66.6796540  62.2617330  50.7301850
  60.4991900  66.7960790  48.8274580  61.0136570  66.7068800  49.6297010
  59.6560980  67.1420490  49.1202490  62.4746300  67.0816130  38.2558580
  62.3147440  66.7919070  39.1540410  62.3093010  66.3056260  37.7203810
  54.9534680  66.8614660  40.0330200  54.7777160  65.9450200  39.8198000
  54.0990420  67.2201950  40.2728000  62.1772430  64.5903690  36.8156580
  61.4837590  64.5880980  36.1558860  62.9195290  64.1663010  36.3850750
  61.7422360  66.2166400  40.8905070  62.1979310  65.4355780  41.2043690
  62.0814880  66.9273220  41.4346250  66.4899170  55.1465250  51.2229510
  65.8743440  55.6544920  50.6944970  66.1695590  54.2463580  51.1655450
  49.4924910  61.9882860  48.0495810  49.6555950  61.5188220  47.2315180
  49.9577360  61.4806420  48.7144650  58.5513490  53.9857140  48.6891700
  58.0892860  54.1940160  49.5011640  58.1491600  53.1716490  48.3862370
  63.5518000  55.2066090  49.8188360  62.7011590  54.9071840  50.1397430
  63.3919790  55.4508100  48.9072180  60.6467710  56.7067840  51.9187150
  60.9721120  55.8731590  51.5789380  61.4348040  57.2296360  52.0665480
  56.3019580  51.6635950  44.9445980  56.5991910  52.5698780  44.8638000
  56.8505140  51.1754730  44.3305550  61.2855660  56.2485560  39.4128280
  60.6864550  56.9721360  39.2291900  61.8335270  56.1862340  38.6304730
  56.4957110  57.1407770  51.4797900  56.4000710  56.2002500  51.3298300
  57.3389090  57.3622840  51.0845970  59.8920530  54.8849100  41.4431560
  60.2850100  55.2021300  40.6300250  60.2537380  54.0060980  41.5576080
  51.6267650  53.5521440  49.6331680  51.2331040  54.3996650  49.8404460
  50.9386050  52.9147810  49.8240320  58.2012700  53.6356410  52.7028420
  57.5111020  53.4428610  53.3374510  58.9445000  53.9191050  53.2352720
  60.4775670  57.4754850  45.5382340  59.7456790  57.9841660  45.8872440
  60.0800010  56.6584830  45.2371120  56.9153060  54.1509050  43.9434830
  56.9189120  53.7099000  43.0939370  57.8104180  54.4726380  44.0506650
  60.9401580  52.9288530  44.9505280  60.9574320  53.3797180  45.7947130
  60.6917160  52.0294170  45.1638720  55.9894710  57.4622270  36.3324890
  55.4211610  57.0140520  35.7060800  56.6983710  57.8215050  35.7990040
  64.3672330  50.3420710  50.7891660  64.6918100  49.6110370  51.3149640
  64.4028840  50.0234350  49.8872650  51.0663890  61.3634290  50.2091620
  50.6818680  60.7227960  50.8074580  51.3776080  62.0670410  50.7786350
  57.2161030  58.2110830  45.6900240  57.5831160  57.7369400  46.4361580
  57.0266090  59.0852400  46.0308580  55.0060400  57.2519470  48.0084450
  54.7017470  58.1311450  48.2334810  55.9606860  57.3119260  48.0441890
  53.5342190  61.4580460  38.6051300  52.7604450  60.9178080  38.4450020
  54.2636820  60.9387070  38.2669060  64.2930170  60.4545820  44.3977690
  65.0129290  60.9501110  44.0073800  64.0911990  59.7763710  43.7531560
  59.6748970  60.5254880  50.2846690  59.6086280  59.6050550  50.0304280
  59.0454110  60.6230320  50.9991330  62.4688500  56.2203430  36.8369240
  63.3568120  56.5320660  36.6620580  62.4393590  55.3475680  36.4449820
  53.5779590  61.1260840  42.2430110  54.0958260  60.3229100  42.1887000
  53.1263610  61.0639980  43.0846940  58.4649090  62.3927120  37.5157410
  58.8064790  63.1369350  37.0200730  57.6361800  62.7058240  37.8782240
  51.0624130  58.0922210  49.1555810  50.7039070  58.7576060  49.7429150
  50.7678690  57.2605760  49.5268430  54.2637250  58.5506450  52.0395360
  53.9637390  58.6963630  51.1423180  55.0348490  57.9911740  51.9468750
  59.6065700  63.3475450  50.0350490  59.6210240  62.4156410  49.8169400
  58.8990800  63.4335210  50.6740260  64.7402770  57.5315270  36.3049100
  64.6566490  57.9629490  35.4545540  65.4596960  57.9913620  36.7375920
  65.8176910  59.9882790  49.3819070  65.0925100  60.5811570  49.1848460
  66.3452370  59.9806330  48.5832440  65.7690020  64.3857530  39.0331230
  65.1266180  63.7313150  39.3074950  65.3820680  64.7912620  38.2571900
  61.3476500  61.7142960  42.8802920  61.7000320  61.1171090  42.2204290
  60.4638830  61.3887190  43.0511170  57.4339780  62.4740650  40.2873330
  58.1210910  63.0209860  40.6680920  56.6472200  63.0181380  40.3222940
  49.5732180  58.0913470  35.7790410  50.4427030  58.3738270  36.0626330
  49.0822500  58.9049340  35.6639220  56.7366990  59.4786680  39.8998690
  57.1929770  60.2891930  40.1258880  56.3855200  59.1609820  40.7317180
  59.0399600  64.9893020  47.1290990  59.6841820  65.1952400  47.8064410
  59.4029040  64.2281420  46.6761840  60.3131680  62.9925370  45.8468440
  60.9553910  62.2918530  45.9600610  60.8381030  63.7723810  45.6665330
  64.1587400  63.2773990  35.5707580  63.9324980  62.5604430  36.1632220
  63.7683600  63.0286430  34.7329330  62.0869300  63.7920270  49.0504500
  62.4225540  64.3786960  49.7282420  61.1669640  63.6612980  49.2802290
  49.9403430  67.3040850  36.3452040  50.3001070  67.9030190  35.6909310
  49.7995770  67.8500740  37.1187070  63.7403650  61.1945930  37.2321740
  63.4525350  61.6558620  38.0199620  64.5355820  60.7343700  37.5005960
  49.9245290  65.5695710  50.8194440  50.0336410  64.6290450  50.6789830
  49.2725850  65.8350460  50.1708170  57.9157880  63.8411600  52.2192560
  57.5954750  63.1220840  52.7638250  57.2416240  64.5166670  52.2928620
  55.9572050  64.6872050  37.1625710  55.9482150  65.4201740  36.5470220
  55.0370410  64.4403630  37.2552670  51.5578690  59.9086940  37.9072470
  50.9506640  60.6485840  37.9167770  52.0328040  59.9986300  37.0810670
  61.1311480  54.0737760  47.5829360  61.4992300  53.2532970  47.9108930
  60.2709680  54.1339650  47.9985010  64.4973510  53.0294700  38.3916920
  63.8686670  53.1340370  37.6775150  64.0025430  53.2491480  39.1810800
  58.9431650  64.7500290  35.8250900  59.0443630  64.5464280  34.8952880
  58.0433390  64.4958570  36.0298680  56.4657540  55.3080650  39.8074800
  55.7573690  55.7766990  40.2488410  56.7502020  54.6502660  40.4419990
  58.0913470  56.7277350  47.8067330  58.5898720  57.2023170  48.4719180
  58.2336420  55.8040870  48.0137360  57.5849760  67.2686610  40.5198570
  57.8391260  67.2308000  39.5977940  56.6362240  67.1419940  40.5126820
  65.2980330  52.9445310  48.6495720  64.7953930  53.6850710  48.9889530
  66.1136990  53.3329310  48.3332510  63.5902340  58.1878490  42.0957080
  62.6492480  58.2028720  42.2704770  63.9046410  57.4014450  42.5417380
  53.5683980  59.8698090  35.6561040  54.3347250  59.7579450  36.2186470
  53.6458670  59.1736060  35.0037810  65.5927920  65.3587340  43.7711340
  65.7175340  66.1818510  44.2435150  66.4593480  65.1478070  43.4235490
  53.0645450  67.4518550  43.4428470  53.8007930  66.9034010  43.7137040
  53.4486370  68.3174560  43.3034460  49.9490930  63.5192120  39.3169980
  49.0230710  63.7613260  39.3075390  50.4147360  64.3466380  39.1954730
  52.0703730  66.6364620  52.6314050  52.8716460  66.9576670  53.0449450
  51.5555550  66.2760200  53.3533960  56.1747760  66.6248860  35.2654040
  56.9676370  66.9137690  34.8135830  55.6552110  66.1941030  34.5866520
  60.9068360  62.7444490  52.5789460  60.3006520  62.7676090  51.8385210
  60.6022470  62.0127530  53.1156710  62.3368730  66.4724780  51.1898870
  63.2890480  66.3882800  51.1399110  62.1896950  67.1366490  51.8632660
  65.2277930  65.8518990  36.6890780  64.9419440  65.4384130  35.8744960
  65.0297480  66.7806700  36.5691300  49.7901540  59.1238080  51.5750100
  50.2940560  58.5445360  52.1466330  49.0508960  59.4078310  52.1126470
  56.6925160  61.8452270  35.1296390  56.5875800  61.2304620  35.8557770
  56.5249380  61.3218160  34.3459400  56.8439480  60.5309070  51.1085620
  56.0785150  61.0994070  51.0240290  57.0255440  60.2385280  50.2153850
  59.9327890  60.9072300  35.7338380  59.3837990  61.3541600  36.3781120
  60.5547150  60.4021550  36.2576050  63.9862830  62.2614400  51.6660640
  64.7272300  62.5990160  51.1628100  63.2235510  62.4306460  51.1130410
  51.8224620  57.2667670  52.4700170  51.8629960  56.9681540  53.3785400
  52.6770120  57.6675280  52.3107690  55.6003010  59.8663220  37.6303680
  56.0219430  59.7003090  38.4735070  55.7253850  59.0563450  37.1358820
  53.7630430  55.8459770  50.4374660  53.2326890  55.3550720  49.8098000
  54.4318500  56.2743970  49.9032590  58.1130650  58.8900830  34.8780780
  58.6336310  58.1749850  34.5121930  58.7599050  59.5286700  35.1781290
  62.6608490  60.3129230  50.2015850  63.0749510  60.4674310  51.0506270
  61.7259490  60.4384450  50.3641630  63.1330660  57.6525390  52.2055000
  63.7151430  56.8977710  52.1175480  63.3092430  58.1832830  51.4286480
  54.2502730  52.8122140  50.5171950  54.1559600  52.1942890  49.7922820
  53.6700120  53.5388430  50.2901860  57.0164170  51.3695380  47.5499340
  56.5681470  51.3919640  46.7044890  56.3829370  50.9714400  48.1469640
  57.4223720  60.2649710  48.1711780  57.8411830  61.1082440  47.9988020
  56.5032350  60.4021750  47.9418560  59.7587620  57.9965890  49.5549620
  59.8783830  57.4007030  50.2944460  60.6181620  58.0335580  49.1350920
  62.0975520  58.5503080  48.1312130  61.5710740  59.0745700  47.5277270
  62.4406860  59.1830470  48.7621860  55.2731140  66.5702720  49.2869510
  54.7352230  67.2948780  48.9678210  55.5265100  66.0933060  48.4966850
  56.5256390  54.5387240  50.8125440  57.1156080  54.2303090  51.5003260
  55.7076630  54.0666990  50.9685340  61.3449820  54.1553050  51.0458460
  60.6565340  53.4934590  50.9808450  62.0655840  53.7091320  51.4906920
  58.1293350  67.8053930  49.5456160  58.0552050  68.7089070  49.8528530
  57.2272190  67.4865830  49.5178230  58.6778680  66.9712440  37.1682520
  59.5729470  67.3097410  37.1901280  58.7096310  66.2491850  36.5406800
  52.3174840  62.3439490  35.3969520  52.7549710  62.8869160  36.0527100
  52.8022570  61.5186440  35.4065860  49.5320640  65.1328520  42.8489780
  49.8623650  64.2649580  42.6168420  49.9611640  65.3387040  43.6794740
  54.1282560  63.4637530  40.5091750  53.8278100  63.3402500  41.4095660
  54.0220050  62.6046120  40.1007480  50.0210850  65.9999110  45.5871410
  49.5841840  66.1799910  46.4195560  50.5888530  66.7573730  45.4453130
  65.6573030  65.5016110  49.8748720  65.0575020  65.5608670  49.1312640
  65.7866930  64.5621090  50.0045570  66.8974480  63.2433930  35.2118430
  66.0667440  63.3110580  35.6825660  67.0746310  64.1338050  34.9085290
  66.3530940  59.9881410  37.7152630  67.1149850  60.5578060  37.8212320
  66.3685310  59.4208610  38.4860940  49.8535280  58.5119340  41.9460290
  49.1984120  58.2430980  41.3019990  50.6913230  58.4023820  41.4962270
  67.3590910  60.8431510  42.5594560  67.7299740  60.0598830  42.1530530
  67.9992840  61.5320610  42.3811860  64.3424670  62.2268090  47.9724880
  63.5284510  62.6565250  48.2350670  64.7498870  62.8386500  47.3593930
  66.4050110  60.2815780  34.8725150  66.6798950  61.1894660  34.7444370
  66.2160850  60.2178310  35.8087140  62.8025720  53.3060630  36.1678780
  63.2210600  53.1191610  35.3275440  62.4961780  52.4539680  36.4781710
  66.3015450  58.2184770  39.8654580  65.9259050  57.4512700  39.4335870
  65.5718570  58.6007470  40.3529510  50.8911210  58.8971910  46.4863630
  51.2584250  58.8099310  47.3659650  50.3222030  58.1338460  46.3870490
  65.6915070  57.3656290  49.4994100  65.4601160  57.1369040  48.5992050
  65.9519620  58.2855840  49.4538990  50.4427210  55.8081000  50.3922050
  49.5483260  55.7747760  50.7315760  50.9824760  56.0067790  51.1573300
  64.1303140  52.5912720  52.2773800  65.0073320  52.5996120  52.6607800
  64.1423980  51.8543560  51.6666150  65.5766410  56.4442260  43.1661820
  66.1003890  55.9504910  42.5351990  66.1625830  56.5792620  43.9109390
  65.7556130  56.5282130  46.6881370  64.8058840  56.4945670  46.8026360
  65.9369140  57.4382240  46.4531140  65.0666380  55.7015610  39.1054230
  65.5625500  55.4686480  39.8903110  64.8682450  54.8627450  38.6891870
  66.4953540  54.3376560  41.6391910  66.3852820  54.1832600  42.5774180
  67.2561130  53.8097500  41.3967320  64.8419260  50.2770690  48.0974910
  65.4791480  50.8904830  48.4634100  64.9894150  50.3131350  47.1524140
  67.3843810  52.1684480  34.8798050  68.3093120  52.0365660  34.6716340
  67.3619600  52.2477300  35.8334500  67.4582300  52.9395140  37.5054760
  66.6633800  52.8740260  38.0347670  67.6625580  53.8745780  37.4940110
  64.4000720  66.9786690  41.4993150  64.9959790  66.6571260  40.8227570
  64.6578870  66.5058510  42.2906420  52.3063290  63.4104600  51.6483780
  52.2632920  63.0397510  52.5298240  52.4374300  64.3482170  51.7885600
  56.0069320  64.9664190  47.2493500  55.7660680  65.2338750  46.3624020
  56.9471960  65.1369920  47.3044360  58.2123740  51.4296880  51.0050010
  58.1512630  52.0218710  51.7545420  59.1524120  51.3222840  50.8600270
  60.8498300  51.0866940  50.6442300  61.4638710  51.4046230  49.9823380
  61.3947860  50.6015530  51.2638160  67.2673480  66.9858570  48.0504140
  66.7731760  67.3827440  47.3331270  66.6586770  66.3607780  48.4441420
  52.1451320  66.3566850  48.7681560  51.5511640  66.2251550  49.5071600
  52.1375160  65.5204990  48.3023660  61.5906340  49.6499080  46.9711590
  60.7166180  49.9834190  46.7684520  61.4817090  49.1772260  47.7963460
  62.4978320  51.8569950  48.3553310  62.1691680  51.0421710  47.9755040
  63.4460620  51.8139760  48.2319000  64.9512930  67.6281990  45.3290880
  64.4915900  68.3797800  44.9548900  64.3225390  66.9088460  45.2705680
  51.7763550  63.7225230  47.7189600  51.0497610  63.1030520  47.6515550
  51.8372700  64.1165840  46.8487680  55.3808650  65.9370230  44.5039010
  55.8973670  65.3257590  43.9787270  56.0306030  66.4399010  44.9950020
  58.1204150  66.8278720  45.3307990  58.4081960  66.5733020  44.4541000
  58.6327370  66.2756080  45.9213560  59.3381160  50.5668920  45.9104500
  58.5552950  51.0414420  46.1901260  59.0444090  49.6623750  45.8017680
  63.8902230  51.2692020  43.9553590  64.3310320  51.2137120  43.1075190
  63.6209820  52.1850030  44.0263770  65.7540800  50.9007260  41.9662410
  65.6929200  49.9568480  41.8193430  66.5332830  51.0087350  42.5115870
  50.0593550  67.0399620  40.9286360  49.8915590  66.4070300  41.6268250
  49.1928060  67.2459020  40.5780550  64.8694960  50.0519680  37.9343880
  65.0645590  50.9503130  38.2011310  64.0824830  49.8206760  38.4276830
  51.6656250  65.7332850  38.3736500  51.1403870  66.1140880  37.6698460
  51.5900830  66.3583620  39.0946210  58.1876510  67.7494820  52.6976190
  59.1143820  67.5139090  52.7412150  58.1726940  68.5766820  52.2162220
  66.4221570  67.2920390  39.6950440  66.5973760  66.6058130  39.0511360
  65.7243140  67.8167440  39.3027110  55.3740120  50.4139570  52.4618070
  55.0924390  50.9173170  51.6978890  55.7559820  49.6161320  52.0960200
  54.2649220  67.6815230  37.2485750  54.9968040  67.3974510  36.7009640
  54.5242890  67.4428510  38.1385130  53.4264010  63.7979960  37.2532080
  52.7972890  64.2665060  37.8017910  53.5411840  62.9529180  37.6878270
  61.9755580  49.8293150  53.0398540  61.8621030  50.1487760  53.9350060
  62.7925320  50.2305660  52.7435820  64.7554070  66.9764680  52.5217230
  65.5479390  66.4813910  52.3143190  65.0487220  67.6554820  53.1292840
  60.8813730  57.8485620  23.4033280  60.8007780  56.9340230  23.1324990
  60.4678150  58.3452690  22.6972990  59.0131770  59.6264640  25.2842550
  58.2373870  59.1465080  25.5741120  59.6644700  58.9470290  25.1098710
  53.0297600  59.9384450  26.1618310  52.1982480  59.6833160  26.5614820
  53.6378580  60.0095220  26.8976230  63.0339200  64.0324830  24.0641680
  62.5720730  63.2612070  24.3928850  63.8464750  64.0590900  24.5694130
  53.0098860  63.9724540  26.3576330  53.3126900  63.0822280  26.1786550
  53.7542450  64.5294760  26.1298580  51.4389550  54.8986340  19.9460700
  50.5506250  55.2402310  19.8440580  51.7230740  54.6986660  19.0541530
  59.2602510  66.3182840  23.6845670  58.6413950  66.7740340  23.1140110
  60.1154290  66.4734300  23.2835370  58.4540760  62.3021830  25.2912710
  58.3849040  61.3611770  25.1301840  59.2160620  62.3923240  25.8635280
  59.4845930  55.1092210  25.5181640  59.8610750  54.2364090  25.4055310
  59.3865440  55.4450910  24.6272080  53.6150940  53.4817840  20.9799080
  53.7217690  54.3821570  21.2867840  52.7043300  53.4335810  20.6893730
  63.2670050  52.6042650  22.4509980  64.0879670  52.1139220  22.4935460
  63.3004130  53.1940310  23.2041820  55.4558670  56.4504210  25.3124260
  55.9636890  56.9485180  25.9529280  55.9871910  55.6739410  25.1363620
  67.5569600  54.6209400  29.0153610  66.8521770  55.0091110  28.4968720
  67.8227520  55.3159690  29.6174540  60.1265860  61.2022080  21.0777580
  59.5083130  61.6671530  20.5140300  60.6389110  61.8949560  21.4947090
  54.9897620  60.7297950  27.7561180  54.6567000  61.3566870  28.3982250
  55.1664300  61.2559830  26.9762850  63.5031530  54.5443030  25.2237520
  62.7987100  54.8327920  25.8040630  63.8643690  55.3543140  24.8637080
  54.2016720  62.6978750  29.5710360  54.8190720  63.3729830  29.2894810
  53.3409840  63.1066730  29.4797860  49.4949060  61.8878610  18.4517210
  49.1177040  62.3765710  17.7202110  49.7522130  62.5603890  19.0823740
  65.1194310  64.1618160  27.4865000  64.4357830  64.8317270  27.4781670
  65.6588600  64.3598810  26.7209860  66.5718450  53.9897820  25.6146730
  65.6243360  54.0236800  25.7462160  66.8968440  54.8036770  25.9996090
  57.1037990  50.2895000  23.9102720  57.4112970  49.7341890  23.1938220
  56.1738690  50.4239460  23.7275710  62.6553050  66.0062290  26.2010180
  62.6680210  65.6024580  25.3332440  62.1028270  66.7809580  26.0971610
  63.9498470  62.7278510  21.2900350  63.8394800  61.7852840  21.4149770
  63.9466720  63.0894150  22.1763110  62.0538490  60.9092130  27.5292790
  62.4707280  60.6952240  26.6946250  62.7778310  61.1664920  28.1001410
  59.4918750  58.3543830  20.6462840  58.5648030  58.2881210  20.8751310
  59.6443570  59.2923960  20.5318080  59.4787830  54.6260830  17.6430000
  58.5391500  54.7874790  17.7282460  59.7971090  55.3446510  17.0965990
  66.0000590  59.3079350  27.6209030  65.1719220  59.3772440  27.1459160
  66.5951070  59.8933660  27.1524860  63.5216040  59.9164130  21.1498090
  62.9028460  59.5783680  20.5024390  63.5040490  59.2723890  21.8577280
  62.9642600  56.0948670  28.5663900  62.5513780  56.9202380  28.8203890
  62.2318550  55.5093710  28.3740260  55.0975390  58.8808570  23.4282570
  54.6932390  58.1685820  22.9328470  55.1838510  58.5361810  24.3170610
  55.5657090  62.5676130  25.5921780  55.2685380  61.9621600  24.9129560
  56.5156910  62.6053440  25.4811140  63.6542700  66.1408000  29.2544880
  63.1773260  66.9480190  29.0617490  62.9704490  65.4886330  29.4071090
  54.6575520  62.3057820  32.2429580  53.7604050  62.5297790  32.4902980
  54.6828390  62.4292760  31.2940980  61.6980740  59.1550940  18.1570840
  62.1374020  58.3173370  18.0108660  62.4109160  59.7880340  18.2434980
  53.4846740  59.1771140  30.8186950  53.3454510  60.0493940  31.1874350
  52.6028100  58.8343950  30.6734890  59.8076120  64.0947010  22.1252080
  60.2472030  64.8371340  21.7107470  59.7463010  64.3373580  23.0491040
  55.2827090  65.1192840  33.0272100  55.2542520  65.5235790  32.1600530
  55.1192060  64.1903200  32.8643700  65.2797880  50.4093750  16.4711880
  64.9670540  50.5020580  17.3710950  66.0410350  50.9874780  16.4209310
  51.7980020  57.7753550  20.9289220  51.6777620  58.5015640  20.3170490
  51.4880910  57.0056460  20.4517130  67.2341910  65.9019940  34.3236270
  67.7101630  66.3802830  35.0025350  67.8549070  65.8337430  33.5981770
  49.4365390  60.9468690  26.7357860  49.5145810  61.0817460  25.7913580
  50.0507070  60.2384580  26.9285980  50.6813020  62.6468880  23.1464040
  50.2741100  62.7883470  22.2917640  51.5726030  62.3629040  22.9435250
  66.6375160  63.0932790  31.4836280  66.7638220  62.8544670  30.5653460
  66.6796540  62.2617330  31.9558360  60.4991900  66.7960790  30.0531090
  61.0136570  66.7068800  30.8553520  59.6560980  67.1420490  30.3459000
  62.4746300  67.0816130  19.4815090  62.3147440  66.7919070  20.3796920
  62.3093010  66.3056260  18.9460320  54.9534680  66.8614660  21.2586710
  54.7777160  65.9450200  21.0454510  54.0990420  67.2201950  21.4984510
  62.1772430  64.5903690  18.0413090  61.4837590  64.5880980  17.3815370
  62.9195290  64.1663010  17.6107260  61.7422360  66.2166400  22.1161580
  62.1979310  65.4355780  22.4300200  62.0814880  66.9273220  22.6602760
  66.4899170  55.1465250  32.4486020  65.8743440  55.6544920  31.9201480
  66.1695590  54.2463580  32.3911960  49.4924910  61.9882860  29.2752320
  49.6555950  61.5188220  28.4571690  49.9577360  61.4806420  29.9401160
  54.2643680  51.1188620  24.3112890  53.8211830  51.8998160  23.9797410
  54.8228670  51.4418510  25.0183830  63.5518000  55.2066090  31.0444870
  62.7011590  54.9071840  31.3653940  63.3919790  55.4508100  30.1328690
  60.6467710  56.7067840  33.1443660  60.9721120  55.8731590  32.8045890
  61.4348040  57.2296360  33.2921990  57.3802500  50.7399320  19.1918720
  56.7556680  50.7359190  19.9172030  57.2932620  49.8730280  18.7954690
  54.0557900  56.2422190  22.0394140  53.8298820  56.0259360  22.9440760
  53.2750430  56.6750650  21.6940110  61.2855660  56.2485560  20.6384790
  60.6864550  56.9721360  20.4548410  61.8335270  56.1862340  19.8561240
  56.4957110  57.1407770  32.7054410  56.4000710  56.2002500  32.5554810
  57.3389090  57.3622840  32.3102480  59.8920530  54.8849100  22.6688070
  60.2850100  55.2021300  21.8556760  60.2537380  54.0060980  22.7832590
  49.1154930  55.4170020  16.1020990  49.0329600  56.3600780  16.2435980
  48.7637990  55.2744930  15.2233340  60.4775670  57.4754850  26.7638850
  59.7456790  57.9841660  27.1128950  60.0800010  56.6584830  26.4627630
  56.9153060  54.1509050  25.1691340  56.9189120  53.7099000  24.3195880
  57.8104180  54.4726380  25.2763160  52.7655440  54.0335540  24.1285550
  52.4255490  54.5110770  24.8852600  52.0032760  53.5800660  23.7686650
  56.9773210  55.1521130  18.1598100  57.0986030  55.1107610  19.1083920
  56.5921720  56.0145280  18.0044830  60.9401580  52.9288530  26.1761790
  60.9574320  53.3797180  27.0203640  60.6917160  52.0294170  26.3895230
  55.9894710  57.4622270  17.5581400  55.4211610  57.0140520  16.9317310
  56.6983710  57.8215050  17.0246550  64.3672330  50.3420710  32.0148170
  64.6918100  49.6110370  32.5406150  64.4028840  50.0234350  31.1129160
  51.0663890  61.3634290  31.4348130  50.6818680  60.7227960  32.0331090
  51.3776080  62.0670410  32.0042860  57.2161030  58.2110830  26.9156750
  57.5831160  57.7369400  27.6618090  57.0266090  59.0852400  27.2565090
  55.0060400  57.2519470  29.2340960  54.7017470  58.1311450  29.4591320
  55.9606860  57.3119260  29.2698400  53.5342190  61.4580460  19.8307810
  52.7604450  60.9178080  19.6706530  54.2636820  60.9387070  19.4925570
  64.2930170  60.4545820  25.6234200  65.0129290  60.9501110  25.2330310
  64.0911990  59.7763710  24.9788070  59.7540110  51.8483780  19.7663590
  58.9404720  51.3496950  19.6908900  59.5602060  52.6882030  19.3499940
  59.6748970  60.5254880  31.5103200  59.6086280  59.6050550  31.2560790
  59.0454110  60.6230320  32.2247840  62.4688500  56.2203430  18.0625750
  63.3568120  56.5320660  17.8877090  62.4393590  55.3475680  17.6706330
  53.5779590  61.1260840  23.4686620  54.0958260  60.3229100  23.4143510
  53.1263610  61.0639980  24.3103450  58.4649090  62.3927120  18.7413920
  58.8064790  63.1369350  18.2457240  57.6361800  62.7058240  19.1038750
  59.6065700  63.3475450  31.2607000  59.6210240  62.4156410  31.0425910
  58.8990800  63.4335210  31.8996770  64.7402770  57.5315270  17.5305610
  64.6566490  57.9629490  16.6802050  65.4596960  57.9913620  17.9632430
  65.8176910  59.9882790  30.6075580  65.0925100  60.5811570  30.4104970
  66.3452370  59.9806330  29.8088950  65.7690020  64.3857530  20.2587740
  65.1266180  63.7313150  20.5331460  65.3820680  64.7912620  19.4828410
  61.3476500  61.7142960  24.1059430  61.7000320  61.1171090  23.4460800
  60.4638830  61.3887190  24.2767680  57.4339780  62.4740650  21.5129840
  58.1210910  63.0209860  21.8937430  56.6472200  63.0181380  21.5479450
  49.5732180  58.0913470  17.0046920  50.4427030  58.3738270  17.2882840
  49.0822500  58.9049340  16.8895730  56.7366990  59.4786680  21.1255200
  57.1929770  60.2891930  21.3515390  56.3855200  59.1609820  21.9573690
  59.0399600  64.9893020  28.3547500  59.6841820  65.1952400  29.0320920
  59.4029040  64.2281420  27.9018350  52.6378770  49.8224330  21.5977720
  52.5093400  49.8142230  22.5462640  51.8140790  50.1607420  21.2468730
  60.3131680  62.9925370  27.0724950  60.9553910  62.2918530  27.1857120
  60.8381030  63.7723810  26.8921840  64.1587400  63.2773990  16.7964090
  63.9324980  62.5604430  17.3888730  63.7683600  63.0286430  15.9585840
  62.0869300  63.7920270  30.2761010  62.4225540  64.3786960  30.9538930
  61.1669640  63.6612980  30.5058800  49.9403430  67.3040850  17.5708550
  50.3001070  67.9030190  16.9165820  49.7995770  67.8500740  18.3443580
  63.7403650  61.1945930  18.4578250  63.4525350  61.6558620  19.2456130
  64.5355820  60.7343700  18.7262470  49.9245290  65.5695710  32.0450950
  50.0336410  64.6290450  31.9046340  49.2725850  65.8350460  31.3964680
  57.9157880  63.8411600  33.4449070  57.5954750  63.1220840  33.9894760
  57.2416240  64.5166670  33.5185130  55.9572050  64.6872050  18.3882220
  55.9482150  65.4201740  17.7726730  55.0370410  64.4403630  18.4809180
  51.5578690  59.9086940  19.1328980  50.9506640  60.6485840  19.1424280
  52.0328040  59.9986300  18.3067180  61.1311480  54.0737760  28.8085870
  61.4992300  53.2532970  29.1365440  60.2709680  54.1339650  29.2241520
  64.4973510  53.0294700  19.6173430  63.8686670  53.1340370  18.9031660
  64.0025430  53.2491480  20.4067310  58.9431650  64.7500290  17.0507410
  59.0443630  64.5464280  16.1209390  58.0433390  64.4958570  17.2555190
  56.4657540  55.3080650  21.0331310  55.7573690  55.7766990  21.4744920
  56.7502020  54.6502660  21.6676500  60.4972970  52.0331310  22.4727100
  60.3740750  52.0517440  21.5236610  61.4457530  52.0810250  22.5925500
  57.5849760  67.2686610  21.7455080  57.8391260  67.2308000  20.8234450
  56.6362240  67.1419940  21.7383330  54.6692560  53.6165730  18.4082020
  55.5183090  54.0535880  18.3422210  54.3023830  53.9285990  19.2354080
  65.2980330  52.9445310  29.8752230  64.7953930  53.6850710  30.2146040
  66.1136990  53.3329310  29.5589020  63.5902340  58.1878490  23.3213590
  62.6492480  58.2028720  23.4961280  63.9046410  57.4014450  23.7673890
  53.5683980  59.8698090  16.8817550  54.3347250  59.7579450  17.4442980
  53.6458670  59.1736060  16.2294320  52.2630740  57.3023160  17.5650440
  52.3434330  56.3550670  17.6767840  53.1550490  57.6330040  17.6711100
  65.5927920  65.3587340  24.9967850  65.7175340  66.1818510  25.4691660
  66.4593480  65.1478070  24.6492000  53.0645450  67.4518550  24.6684980
  53.8007930  66.9034010  24.9393550  53.4486370  68.3174560  24.5290970
  49.9490930  63.5192120  20.5426490  49.0230710  63.7613260  20.5331900
  50.4147360  64.3466380  20.4211240  52.0703730  66.6364620  33.8570560
  52.8716460  66.9576670  34.2705960  51.5555550  66.2760200  34.5790470
  56.1747760  66.6248860  16.4910550  56.9676370  66.9137690  16.0392340
  55.6552110  66.1941030  15.8123030  60.9068360  62.7444490  33.8045970
  60.3006520  62.7676090  33.0641720  60.6022470  62.0127530  34.3413220
  62.3368730  66.4724780  32.4155380  63.2890480  66.3882800  32.3655620
  62.1896950  67.1366490  33.0889170  65.2277930  65.8518990  17.9147290
  64.9419440  65.4384130  17.1001470  65.0297480  66.7806700  17.7947810
  49.7901540  59.1238080  32.8006610  50.2940560  58.5445360  33.3722840
  49.0508960  59.4078310  33.3382980  56.6925160  61.8452270  16.3552900
  56.5875800  61.2304620  17.0814280  56.5249380  61.3218160  15.5715910
  56.8439480  60.5309070  32.3342130  56.0785150  61.0994070  32.2496800
  57.0255440  60.2385280  31.4410360  59.9327890  60.9072300  16.9594890
  59.3837990  61.3541600  17.6037630  60.5547150  60.4021550  17.4832560
  63.9862830  62.2614400  32.8917150  64.7272300  62.5990160  32.3884610
  63.2235510  62.4306460  32.3386920  55.6003010  59.8663220  18.8560190
  56.0219430  59.7003090  19.6991580  55.7253850  59.0563450  18.3615330
  58.1130650  58.8900830  16.1037290  58.6336310  58.1749850  15.7378440
  58.7599050  59.5286700  16.4037800  62.6608490  60.3129230  31.4272360
  63.0749510  60.4674310  32.2762780  61.7259490  60.4384450  31.5898140
  63.1330660  57.6525390  33.4311510  63.7151430  56.8977710  33.3431990
  63.3092430  58.1832830  32.6542990  57.4223720  60.2649710  29.3968290
  57.8411830  61.1082440  29.2244530  56.5032350  60.4021750  29.1675070
  59.7587620  57.9965890  30.7806130  59.8783830  57.4007030  31.5200970
  60.6181620  58.0335580  30.3607430  62.0975520  58.5503080  29.3568640
  61.5710740  59.0745700  28.7533780  62.4406860  59.1830470  29.9878370
  54.4961910  55.9396450  15.8018350  54.2950970  55.0763810  16.1631690
  54.3253960  55.8529810  14.8639950  55.2731140  66.5702720  30.5126020
  54.7352230  67.2948780  30.1934720  55.5265100  66.0933060  29.7223360
  61.3449820  54.1553050  32.2714970  60.6565340  53.4934590  32.2064960
  62.0655840  53.7091320  32.7163430  61.9750220  50.7504680  18.3305230
  62.2552510  49.9072580  18.6864650  61.2015950  50.9827790  18.8443980
  53.2944710  53.0397070  15.7896230  53.5970610  53.0464500  14.8815380
  54.0339300  52.6894930  16.2863890  58.1293350  67.8053930  30.7712670
  58.0552050  68.7089070  31.0785040  57.2272190  67.4865830  30.7434740
  56.5129640  51.9831690  16.7752430  56.1651640  51.3055680  16.1954880
  56.7142410  51.5221200  17.5895820  58.6778680  66.9712440  18.3939030
  59.5729470  67.3097410  18.4157790  58.7096310  66.2491850  17.7663310
  52.3174840  62.3439490  16.6226030  52.7549710  62.8869160  17.2783610
  52.8022570  61.5186440  16.6322370  49.5320640  65.1328520  24.0746290
  49.8623650  64.2649580  23.8424930  49.9611640  65.3387040  24.9051250
  54.1282560  63.4637530  21.7348260  53.8278100  63.3402500  22.6352170
  54.0220050  62.6046120  21.3263990  50.0210850  65.9999110  26.8127920
  49.5841840  66.1799910  27.6452070  50.5888530  66.7573730  26.6709640
  65.6573030  65.5016110  31.1005230  65.0575020  65.5608670  30.3569150
  65.7866930  64.5621090  31.2302080  66.8974480  63.2433930  16.4374940
  66.0667440  63.3110580  16.9082170  67.0746310  64.1338050  16.1341800
  66.3530940  59.9881410  18.9409140  67.1149850  60.5578060  19.0468830
  66.3685310  59.4208610  19.7117450  49.8535280  58.5119340  23.1716800
  49.1984120  58.2430980  22.5276500  50.6913230  58.4023820  22.7218780
  67.3590910  60.8431510  23.7851070  67.7299740  60.0598830  23.3787040
  67.9992840  61.5320610  23.6068370  64.3424670  62.2268090  29.1981390
  63.5284510  62.6565250  29.4607180  64.7498870  62.8386500  28.5850440
  66.4050110  60.2815780  16.0981660  66.6798950  61.1894660  15.9700880
  66.2160850  60.2178310  17.0343650  62.8025720  53.3060630  17.3935290
  63.2210600  53.1191610  16.5531950  62.4961780  52.4539680  17.7038220
  66.3015450  58.2184770  21.0911090  65.9259050  57.4512700  20.6592380
  65.5718570  58.6007470  21.5786020  65.6915070  57.3656290  30.7250610
  65.4601160  57.1369040  29.8248560  65.9519620  58.2855840  30.6795500
  64.1303140  52.5912720  33.5030310  65.0073320  52.5996120  33.8864310
  64.1423980  51.8543560  32.8922660  49.0673360  55.7218270  19.1142130
  48.1637440  55.9848470  18.9393790  49.5513980  55.9929440  18.3342090
  65.5766410  56.4442260  24.3918330  66.1003890  55.9504910  23.7608500
  66.1625830  56.5792620  25.1365900  65.7556130  56.5282130  27.9137880
  64.8058840  56.4945670  28.0282870  65.9369140  57.4382240  27.6787650
  51.6100570  54.7783810  17.0236510  52.3192270  54.3567030  16.5383790
  50.8940510  54.8459040  16.3919860  51.2574730  50.8323140  16.0639160
  51.9802860  51.3732080  16.3820380  51.5299250  50.5586560  15.1880700
  65.0666380  55.7015610  20.3310740  65.5625500  55.4686480  21.1159620
  64.8682450  54.8627450  19.9148380  66.4953540  54.3376560  22.8648420
  66.3852820  54.1832600  23.8030690  67.2561130  53.8097500  22.6223830
  64.8419260  50.2770690  29.3231420  65.4791480  50.8904830  29.6890610
  64.9894150  50.3131350  28.3780650  67.3843810  52.1684480  16.1054560
  68.3093120  52.0365660  15.8972850  67.3619600  52.2477300  17.0591010
  67.4582300  52.9395140  18.7311270  66.6633800  52.8740260  19.2604180
  67.6625580  53.8745780  18.7196620  64.4000720  66.9786690  22.7249660
  64.9959790  66.6571260  22.0484080  64.6578870  66.5058510  23.5162930
  52.3063290  63.4104600  32.8740290  52.2632920  63.0397510  33.7554750
  52.4374300  64.3482170  33.0142110  56.0069320  64.9664190  28.4750010
  55.7660680  65.2338750  27.5880530  56.9471960  65.1369920  28.5300870
  67.2673480  66.9858570  29.2760650  66.7731760  67.3827440  28.5587780
  66.6586770  66.3607780  29.6697930  52.1451320  66.3566850  29.9938070
  51.5511640  66.2251550  30.7328110  52.1375160  65.5204990  29.5280170
  61.5906340  49.6499080  28.1968100  60.7166180  49.9834190  27.9941030
  61.4817090  49.1772260  29.0219970  62.4978320  51.8569950  29.5809820
  62.1691680  51.0421710  29.2011550  63.4460620  51.8139760  29.4575510
  64.9512930  67.6281990  26.5547390  64.4915900  68.3797800  26.1805410
  64.3225390  66.9088460  26.4962190  51.7763550  63.7225230  28.9446110
  51.0497610  63.1030520  28.8772060  51.8372700  64.1165840  28.0744190
  55.3808650  65.9370230  25.7295520  55.8973670  65.3257590  25.2043780
  56.0306030  66.4399010  26.2206530  58.1204150  66.8278720  26.5564500
  58.4081960  66.5733020  25.6797510  58.6327370  66.2756080  27.1470070
  59.3381160  50.5668920  27.1361010  58.5552950  51.0414420  27.4157770
  59.0444090  49.6623750  27.0274190  63.8902230  51.2692020  25.1810100
  64.3310320  51.2137120  24.3331700  63.6209820  52.1850030  25.2520280
  65.7540800  50.9007260  23.1918920  65.6929200  49.9568480  23.0449940
  66.5332830  51.0087350  23.7372380  50.0593550  67.0399620  22.1542870
  49.8915590  66.4070300  22.8524760  49.1928060  67.2459020  21.8037060
  57.2235380  52.9855670  22.6477040  56.4109890  52.6112560  22.3072920
  57.7277020  52.2300750  22.9498230  61.7260360  49.6498120  23.8860110
  62.3289730  50.2218330  24.3608630  60.9853350  50.2137560  23.6634010
  64.8694960  50.0519680  19.1600390  65.0645590  50.9503130  19.4267820
  64.0824830  49.8206760  19.6533340  51.6656250  65.7332850  19.5993010
  51.1403870  66.1140880  18.8954970  51.5900830  66.3583620  20.3202720
  53.0546720  51.3980450  18.1976700  53.5839480  50.6110250  18.0684650
  53.6875040  52.0771640  18.4312230  55.2484560  51.1355590  21.2522090
  54.6187300  50.4342900  21.4192220  54.7089700  51.8959720  21.0355250
  58.1876510  67.7494820  33.9232700  59.1143820  67.5139090  33.9668660
  58.1726940  68.5766820  33.4418730  66.4221570  67.2920390  20.9206950
  66.5973760  66.6058130  20.2767870  65.7243140  67.8167440  20.5283620
  54.2649220  67.6815230  18.4742260  54.9968040  67.3974510  17.9266150
  54.5242890  67.4428510  19.3641640  53.4264010  63.7979960  18.4788590
  52.7972890  64.2665060  19.0274420  53.5411840  62.9529180  18.9134780
  61.9755580  49.8293150  34.2655050  61.8621030  50.1487760  35.1606570
  62.7925320  50.2305660  33.9692330  64.7554070  66.9764680  33.7473740
  65.5479390  66.4813910  33.5399700  65.0487220  67.6554820  34.3549350
  60.8813730  57.8485620   4.6289790  60.8007780  56.9340230   4.3581500
  60.4678150  58.3452690   3.9229500  59.0131770  59.6264640   6.5099060
  58.2373870  59.1465080   6.7997630  59.6644700  58.9470290   6.3355220
  53.0297600  59.9384450   7.3874820  52.1982480  59.6833160   7.7871330
  53.6378580  60.0095220   8.1232740  63.0339200  64.0324830   5.2898190
  62.5720730  63.2612070   5.6185360  63.8464750  64.0590900   5.7950640
  53.0098860  63.9724540   7.5832840  53.3126900  63.0822280   7.4043060
  53.7542450  64.5294760   7.3555090  49.4022560  57.4991990   7.0556910
  49.9738670  56.7314190   7.0560550  49.4024100  57.7980750   6.1463520
  59.2602510  66.3182840   4.9102180  58.6413950  66.7740340   4.3396620
  60.1154290  66.4734300   4.5091880  58.4540760  62.3021830   6.5169220
  58.3849040  61.3611770   6.3558350  59.2160620  62.3923240   7.0891790
  50.6447430  52.9076350   8.8425840  50.4650270  52.0102100   9.1228600
  50.2427510  53.4548220   9.5172790  59.4845930  55.1092210   6.7438150
  59.8610750  54.2364090   6.6311820  59.3865440  55.4450910   5.8528590
  53.6150940  53.4817840   2.2055590  53.7217690  54.3821570   2.5124350
  52.7043300  53.4335810   1.9150240  63.2670050  52.6042650   3.6766490
  64.0879670  52.1139220   3.7191970  63.3004130  53.1940310   4.4298330
  51.2634100  55.4036850   7.4508180  51.9444210  55.6675220   8.0695580
  50.9482150  54.5637720   7.7846190  55.4558670  56.4504210   6.5380770
  55.9636890  56.9485180   7.1785790  55.9871910  55.6739410   6.3620130
  67.5569600  54.6209400  10.2410120  66.8521770  55.0091110   9.7225230
  67.8227520  55.3159690  10.8431050  53.7394770  51.0902770  10.8044190
  53.7413210  51.6075160   9.9990090  52.9099080  50.6132950  10.7814120
  60.1265860  61.2022080   2.3034090  59.5083130  61.6671530   1.7396810
  60.6389110  61.8949560   2.7203600  54.9897620  60.7297950   8.9817690
  54.6567000  61.3566870   9.6238760  55.1664300  61.2559830   8.2019360
  63.5031530  54.5443030   6.4494030  62.7987100  54.8327920   7.0297140
  63.8643690  55.3543140   6.0893590  53.4210100  52.8012730   8.8114640
  53.7626910  53.6454780   8.5168510  52.4825910  52.9496470   8.9279980
  54.2016720  62.6978750  10.7966870  54.8190720  63.3729830  10.5151320
  53.3409840  63.1066730  10.7054370  65.1194310  64.1618160   8.7121510
  64.4357830  64.8317270   8.7038180  65.6588600  64.3598810   7.9466370
  66.5718450  53.9897820   6.8403240  65.6243360  54.0236800   6.9718670
  66.8968440  54.8036770   7.2252600  57.1037990  50.2895000   5.1359230
  57.4112970  49.7341890   4.4194730  56.1738690  50.4239460   4.9532220
  62.6553050  66.0062290   7.4266690  62.6680210  65.6024580   6.5588950
  62.1028270  66.7809580   7.3228120  63.9498470  62.7278510   2.5156860
  63.8394800  61.7852840   2.6406280  63.9466720  63.0894150   3.4019620
  62.0538490  60.9092130   8.7549300  62.4707280  60.6952240   7.9202760
  62.7778310  61.1664920   9.3257920  59.4918750  58.3543830   1.8719350
  58.5648030  58.2881210   2.1007820  59.6443570  59.2923960   1.7574590
  66.0000590  59.3079350   8.8465540  65.1719220  59.3772440   8.3715670
  66.5951070  59.8933660   8.3781370  63.5216040  59.9164130   2.3754600
  62.9028460  59.5783680   1.7280900  63.5040490  59.2723890   3.0833790
  62.9642600  56.0948670   9.7920410  62.5513780  56.9202380  10.0460400
  62.2318550  55.5093710   9.5996770  55.0975390  58.8808570   4.6539080
  54.6932390  58.1685820   4.1584980  55.1838510  58.5361810   5.5427120
  55.5657090  62.5676130   6.8178290  55.2685380  61.9621600   6.1386070
  56.5156910  62.6053440   6.7067650  53.8104010  55.6551780   8.4338120
  54.3618600  55.7647120   7.6591370  54.3247520  56.0289380   9.1493350
  63.6542700  66.1408000  10.4801390  63.1773260  66.9480190  10.2874000
  62.9704490  65.4886330  10.6327600  54.6575520  62.3057820  13.4686090
  53.7604050  62.5297790  13.7159490  54.6828390  62.4292760  12.5197490
  53.4846740  59.1771140  12.0443460  53.3454510  60.0493940  12.4130860
  52.6028100  58.8343950  11.8991400  59.8076120  64.0947010   3.3508590
  60.2472030  64.8371340   2.9363980  59.7463010  64.3373580   4.2747550
  55.2827090  65.1192840  14.2528610  55.2542520  65.5235790  13.3857040
  55.1192060  64.1903200  14.0900210  51.7980020  57.7753550   2.1545730
  51.6777620  58.5015640   1.5427000  51.4880910  57.0056460   1.6773640
  67.2341910  65.9019940  15.5492780  67.7101630  66.3802830  16.2281860
  67.8549070  65.8337430  14.8238280  49.4365390  60.9468690   7.9614370
  49.5145810  61.0817460   7.0170090  50.0507070  60.2384580   8.1542490
  50.6813020  62.6468880   4.3720550  50.2741100  62.7883470   3.5174150
  51.5726030  62.3629040   4.1691760  66.6375160  63.0932790  12.7092790
  66.7638220  62.8544670  11.7909970  66.6796540  62.2617330  13.1814870
  60.4991900  66.7960790  11.2787600  61.0136570  66.7068800  12.0810030
  59.6560980  67.1420490  11.5715510  54.9534680  66.8614660   2.4843220
  54.7777160  65.9450200   2.2711020  54.0990420  67.2201950   2.7241020
  61.7422360  66.2166400   3.3418090  62.1979310  65.4355780   3.6556710
  62.0814880  66.9273220   3.8859270  66.4899170  55.1465250  13.6742530
  65.8743440  55.6544920  13.1457990  66.1695590  54.2463580  13.6168470
  49.4924910  61.9882860  10.5008830  49.6555950  61.5188220   9.6828200
  49.9577360  61.4806420  11.1657670  54.2643680  51.1188620   5.5369400
  53.8211830  51.8998160   5.2053920  54.8228670  51.4418510   6.2440340
  58.5513490  53.9857140  11.1404720  58.0892860  54.1940160  11.9524660
  58.1491600  53.1716490  10.8375390  63.5518000  55.2066090  12.2701380
  62.7011590  54.9071840  12.5910450  63.3919790  55.4508100  11.3585200
  60.6467710  56.7067840  14.3700170  60.9721120  55.8731590  14.0302400
  61.4348040  57.2296360  14.5178500  56.3019580  51.6635950   7.3959000
  56.5991910  52.5698780   7.3151020  56.8505140  51.1754730   6.7818570
  54.0557900  56.2422190   3.2650650  53.8298820  56.0259360   4.1697270
  53.2750430  56.6750650   2.9196620  56.4957110  57.1407770  13.9310920
  56.4000710  56.2002500  13.7811320  57.3389090  57.3622840  13.5358990
  59.8920530  54.8849100   3.8944580  60.2850100  55.2021300   3.0813270
  60.2537380  54.0060980   4.0089100  51.6267650  53.5521440  12.0844700
  51.2331040  54.3996650  12.2917480  50.9386050  52.9147810  12.2753340
  58.2012700  53.6356410  15.1541440  57.5111020  53.4428610  15.7887530
  58.9445000  53.9191050  15.6865740  48.9284700  51.4749900   6.1174780
  48.6397750  52.0452760   6.8299760  49.6730460  50.9954350   6.4806010
  60.4775670  57.4754850   7.9895360  59.7456790  57.9841660   8.3385460
  60.0800010  56.6584830   7.6884140  56.9153060  54.1509050   6.3947850
  56.9189120  53.7099000   5.5452390  57.8104180  54.4726380   6.5019670
  52.7655440  54.0335540   5.3542060  52.4255490  54.5110770   6.1109110
  52.0032760  53.5800660   4.9943160  60.9401580  52.9288530   7.4018300
  60.9574320  53.3797180   8.2460150  60.6917160  52.0294170   7.6151740
  64.3672330  50.3420710  13.2404680  64.6918100  49.6110370  13.7662660
  64.4028840  50.0234350  12.3385670  51.0663890  61.3634290  12.6604640
  50.6818680  60.7227960  13.2587600  51.3776080  62.0670410  13.2299370
  57.2161030  58.2110830   8.1413260  57.5831160  57.7369400   8.8874600
  57.0266090  59.0852400   8.4821600  50.0801520  52.9554520   4.2706730
  49.7948440  52.5910190   5.1085350  50.0180380  52.2234980   3.6569870
  55.0060400  57.2519470  10.4597470  54.7017470  58.1311450  10.6847830
  55.9606860  57.3119260  10.4954910  64.2930170  60.4545820   6.8490710
  65.0129290  60.9501110   6.4586820  64.0911990  59.7763710   6.2044580
  59.6748970  60.5254880  12.7359710  59.6086280  59.6050550  12.4817300
  59.0454110  60.6230320  13.4504350  53.5779590  61.1260840   4.6943130
  54.0958260  60.3229100   4.6400020  53.1263610  61.0639980   5.5359960
  51.0624130  58.0922210  11.6068830  50.7039070  58.7576060  12.1942170
  50.7678690  57.2605760  11.9781450  54.2637250  58.5506450  14.4908380
  53.9637390  58.6963630  13.5936200  55.0348490  57.9911740  14.3981770
  59.6065700  63.3475450  12.4863510  59.6210240  62.4156410  12.2682420
  58.8990800  63.4335210  13.1253280  65.8176910  59.9882790  11.8332090
  65.0925100  60.5811570  11.6361480  66.3452370  59.9806330  11.0345460
  61.3476500  61.7142960   5.3315940  61.7000320  61.1171090   4.6717310
  60.4638830  61.3887190   5.5024190  57.4339780  62.4740650   2.7386350
  58.1210910  63.0209860   3.1193940  56.6472200  63.0181380   2.7735960
  56.7366990  59.4786680   2.3511710  57.1929770  60.2891930   2.5771900
  56.3855200  59.1609820   3.1830200  59.0399600  64.9893020   9.5804010
  59.6841820  65.1952400  10.2577430  59.4029040  64.2281420   9.1274860
  52.6378770  49.8224330   2.8234230  52.5093400  49.8142230   3.7719150
  51.8140790  50.1607420   2.4725240  60.3131680  62.9925370   8.2981460
  60.9553910  62.2918530   8.4113630  60.8381030  63.7723810   8.1178350
  62.0869300  63.7920270  11.5017520  62.4225540  64.3786960  12.1795440
  61.1669640  63.6612980  11.7315310  49.6372700  51.5815450  12.2840930
  48.9231220  51.7812370  12.8893540  50.0567740  50.8055020  12.6555730
  49.9245290  65.5695710  13.2707460  50.0336410  64.6290450  13.1302850
  49.2725850  65.8350460  12.6221190  57.9157880  63.8411600  14.6705580
  57.5954750  63.1220840  15.2151270  57.2416240  64.5166670  14.7441640
  61.1311480  54.0737760  10.0342380  61.4992300  53.2532970  10.3621950
  60.2709680  54.1339650  10.4498030  56.4657540  55.3080650   2.2587820
  55.7573690  55.7766990   2.7001430  56.7502020  54.6502660   2.8933010
  58.0913470  56.7277350  10.2580350  58.5898720  57.2023170  10.9232200
  58.2336420  55.8040870  10.4650380  60.4972970  52.0331310   3.6983610
  60.3740750  52.0517440   2.7493120  61.4457530  52.0810250   3.8182010
  57.5849760  67.2686610   2.9711590  57.8391260  67.2308000   2.0490960
  56.6362240  67.1419940   2.9639840  65.2980330  52.9445310  11.1008740
  64.7953930  53.6850710  11.4402550  66.1136990  53.3329310  10.7845530
  63.5902340  58.1878490   4.5470100  62.6492480  58.2028720   4.7217790
  63.9046410  57.4014450   4.9930400  65.5927920  65.3587340   6.2224360
  65.7175340  66.1818510   6.6948170  66.4593480  65.1478070   5.8748510
  53.0645450  67.4518550   5.8941490  53.8007930  66.9034010   6.1650060
  53.4486370  68.3174560   5.7547480  49.9490930  63.5192120   1.7683000
  49.0230710  63.7613260   1.7588410  50.4147360  64.3466380   1.6467750
  52.0703730  66.6364620  15.0827070  52.8716460  66.9576670  15.4962470
  51.5555550  66.2760200  15.8046980  60.9068360  62.7444490  15.0302480
  60.3006520  62.7676090  14.2898230  60.6022470  62.0127530  15.5669730
  62.3368730  66.4724780  13.6411890  63.2890480  66.3882800  13.5912130
  62.1896950  67.1366490  14.3145680  49.7901540  59.1238080  14.0263120
  50.2940560  58.5445360  14.5979350  49.0508960  59.4078310  14.5639490
  56.8439480  60.5309070  13.5598640  56.0785150  61.0994070  13.4753310
  57.0255440  60.2385280  12.6666870  63.9862830  62.2614400  14.1173660
  64.7272300  62.5990160  13.6141120  63.2235510  62.4306460  13.5643430
  51.8224620  57.2667670  14.9213190  51.8629960  56.9681540  15.8298420
  52.6770120  57.6675280  14.7620710  53.7630430  55.8459770  12.8887680
  53.2326890  55.3550720  12.2611020  54.4318500  56.2743970  12.3545610
  62.6608490  60.3129230  12.6528870  63.0749510  60.4674310  13.5019290
  61.7259490  60.4384450  12.8154650  63.1330660  57.6525390  14.6568020
  63.7151430  56.8977710  14.5688500  63.3092430  58.1832830  13.8799500
  54.2502730  52.8122140  12.9684970  54.1559600  52.1942890  12.2435840
  53.6700120  53.5388430  12.7414880  57.0164170  51.3695380  10.0012360
  56.5681470  51.3919640   9.1557910  56.3829370  50.9714400  10.5982660
  57.4223720  60.2649710  10.6224800  57.8411830  61.1082440  10.4501040
  56.5032350  60.4021750  10.3931580  59.7587620  57.9965890  12.0062640
  59.8783830  57.4007030  12.7457480  60.6181620  58.0335580  11.5863940
  62.0975520  58.5503080  10.5825150  61.5710740  59.0745700   9.9790290
  62.4406860  59.1830470  11.2134880  55.2731140  66.5702720  11.7382530
  54.7352230  67.2948780  11.4191230  55.5265100  66.0933060  10.9479870
  56.5256390  54.5387240  13.2638460  57.1156080  54.2303090  13.9516280
  55.7076630  54.0666990  13.4198360  61.3449820  54.1553050  13.4971480
  60.6565340  53.4934590  13.4321470  62.0655840  53.7091320  13.9419940
  58.1293350  67.8053930  11.9969180  58.0552050  68.7089070  12.3041550
  57.2272190  67.4865830  11.9691250  49.5320640  65.1328520   5.3002800
  49.8623650  64.2649580   5.0681440  49.9611640  65.3387040   6.1307760
  54.1282560  63.4637530   2.9604770  53.8278100  63.3402500   3.8608680
  54.0220050  62.6046120   2.5520500  50.0210850  65.9999110   8.0384430
  49.5841840  66.1799910   8.8708580  50.5888530  66.7573730   7.8966150
  65.6573030  65.5016110  12.3261740  65.0575020  65.5608670  11.5825660
  65.7866930  64.5621090  12.4558590  49.8535280  58.5119340   4.3973310
  49.1984120  58.2430980   3.7533010  50.6913230  58.4023820   3.9475290
  67.3590910  60.8431510   5.0107580  67.7299740  60.0598830   4.6043550
  67.9992840  61.5320610   4.8324880  64.3424670  62.2268090  10.4237900
  63.5284510  62.6565250  10.6863690  64.7498870  62.8386500   9.8106950
  66.3015450  58.2184770   2.3167600  65.9259050  57.4512700   1.8848890
  65.5718570  58.6007470   2.8042530  50.8911210  58.8971910   8.9376650
  51.2584250  58.8099310   9.8172670  50.3222030  58.1338460   8.8383510
  65.6915070  57.3656290  11.9507120  65.4601160  57.1369040  11.0505070
  65.9519620  58.2855840  11.9052010  50.4427210  55.8081000  12.8435070
  49.5483260  55.7747760  13.1828780  50.9824760  56.0067790  13.6086320
  64.1303140  52.5912720  14.7286820  65.0073320  52.5996120  15.1120820
  64.1423980  51.8543560  14.1179170  65.5766410  56.4442260   5.6174840
  66.1003890  55.9504910   4.9865010  66.1625830  56.5792620   6.3622410
  65.7556130  56.5282130   9.1394390  64.8058840  56.4945670   9.2539380
  65.9369140  57.4382240   8.9044160  50.9466920  50.0829330   7.1918290
  51.5943110  49.5326710   6.7513450  51.3668760  50.3372480   8.0134100
  66.4953540  54.3376560   4.0904930  66.3852820  54.1832600   5.0287200
  67.2561130  53.8097500   3.8480340  64.8419260  50.2770690  10.5487930
  65.4791480  50.8904830  10.9147120  64.9894150  50.3131350   9.6037160
  64.4000720  66.9786690   3.9506170  64.9959790  66.6571260   3.2740590
  64.6578870  66.5058510   4.7419440  50.6998920  50.2385000   9.9343610
  50.3513740  50.6948820  10.7001790  50.3686620  49.3442130  10.0166040
  52.3063290  63.4104600  14.0996800  52.2632920  63.0397510  14.9811260
  52.4374300  64.3482170  14.2398620  56.0069320  64.9664190   9.7006520
  55.7660680  65.2338750   8.8137040  56.9471960  65.1369920   9.7557380
  58.2123740  51.4296880  13.4563030  58.1512630  52.0218710  14.2058440
  59.1524120  51.3222840  13.3113290  60.8498300  51.0866940  13.0955320
  61.4638710  51.4046230  12.4336400  61.3947860  50.6015530  13.7151180
  67.2673480  66.9858570  10.5017160  66.7731760  67.3827440   9.7844290
  66.6586770  66.3607780  10.8954440  51.3719560  49.7661200  13.2094380
  51.9202550  49.5849250  12.4460490  51.4374870  48.9755310  13.7450690
  52.1451320  66.3566850  11.2194580  51.5511640  66.2251550  11.9584620
  52.1375160  65.5204990  10.7536680  61.5906340  49.6499080   9.4224610
  60.7166180  49.9834190   9.2197540  61.4817090  49.1772260  10.2476480
  62.4978320  51.8569950  10.8066330  62.1691680  51.0421710  10.4268060
  63.4460620  51.8139760  10.6832020  64.9512930  67.6281990   7.7803900
  64.4915900  68.3797800   7.4061920  64.3225390  66.9088460   7.7218700
  51.7763550  63.7225230  10.1702620  51.0497610  63.1030520  10.1028570
  51.8372700  64.1165840   9.3000700  55.3808650  65.9370230   6.9552030
  55.8973670  65.3257590   6.4300290  56.0306030  66.4399010   7.4463040
  58.1204150  66.8278720   7.7821010  58.4081960  66.5733020   6.9054020
  58.6327370  66.2756080   8.3726580  59.3381160  50.5668920   8.3617520
  58.5552950  51.0414420   8.6414280  59.0444090  49.6623750   8.2530700
  63.8902230  51.2692020   6.4066610  64.3310320  51.2137120   5.5588210
  63.6209820  52.1850030   6.4776790  65.7540800  50.9007260   4.4175430
  65.6929200  49.9568480   4.2706450  66.5332830  51.0087350   4.9628890
  50.0593550  67.0399620   3.3799380  49.8915590  66.4070300   4.0781270
  49.1928060  67.2459020   3.0293570  57.2235380  52.9855670   3.8733550
  56.4109890  52.6112560   3.5329430  57.7277020  52.2300750   4.1754740
  61.7260360  49.6498120   5.1116620  62.3289730  50.2218330   5.5865140
  60.9853350  50.2137560   4.8890520  55.2484560  51.1355590   2.4778600
  54.6187300  50.4342900   2.6448730  54.7089700  51.8959720   2.2611760
  58.1876510  67.7494820  15.1489210  59.1143820  67.5139090  15.1925170
  58.1726940  68.5766820  14.6675240  66.4221570  67.2920390   2.1463460
  66.5973760  66.6058130   1.5024380  65.7243140  67.8167440   1.7540130
  55.3740120  50.4139570  14.9131090  55.0924390  50.9173170  14.1491910
  55.7559820  49.6161320  14.5473220  61.9755580  49.8293150  15.4911560
  61.8621030  50.1487760  16.3863080  62.7925320  50.2305660  15.1948840
  64.7554070  66.9764680  14.9730250  65.5479390  66.4813910  14.7656210
  65.0487220  67.6554820  15.5805860  60.8813730  39.0742130  79.7263750
  60.8007780  38.1596740  79.4555460  60.4678150  39.5709200  79.0203460
  59.0131770  40.8521150  81.6073020  58.2373870  40.3721590  81.8971590
  59.6644700  40.1726800  81.4329180  53.0297600  41.1640960  82.4848780
  52.1982480  40.9089670  82.8845290  53.6378580  41.2351730  83.2206700
  63.0339200  45.2581340  80.3872150  62.5720730  44.4868580  80.7159320
  63.8464750  45.2847410  80.8924600  53.0098860  45.1981050  82.6806800
  53.3126900  44.3078790  82.5017020  53.7542450  45.7551270  82.4529050
  51.4389550  36.1242850  76.2691170  50.5506250  36.4658820  76.1671050
  51.7230740  35.9243170  75.3772000  49.4022560  38.7248500  82.1530870
  49.9738670  37.9570700  82.1534510  49.4024100  39.0237260  81.2437480
  59.2602510  47.5439350  80.0076140  58.6413950  47.9996850  79.4370580
  60.1154290  47.6990810  79.6065840  58.4540760  43.5278340  81.6143180
  58.3849040  42.5868280  81.4532310  59.2160620  43.6179750  82.1865750
  50.6447430  34.1332860  83.9399800  50.4650270  33.2358610  84.2202560
  50.2427510  34.6804730  84.6146750  59.4845930  36.3348720  81.8412110
  59.8610750  35.4620600  81.7285780  59.3865440  36.6707420  80.9502550
  53.6150940  34.7074350  77.3029550  53.7217690  35.6078080  77.6098310
  52.7043300  34.6592320  77.0124200  63.2670050  33.8299160  78.7740450
  64.0879670  33.3395730  78.8165930  63.3004130  34.4196820  79.5272290
  51.2634100  36.6293360  82.5482140  51.9444210  36.8931730  83.1669540
  50.9482150  35.7894230  82.8820150  55.4558670  37.6760720  81.6354730
  55.9636890  38.1741690  82.2759750  55.9871910  36.8995920  81.4594090
  67.5569600  35.8465910  85.3384080  66.8521770  36.2347620  84.8199190
  67.8227520  36.5416200  85.9405010  53.7394770  32.3159280  85.9018150
  53.7413210  32.8331670  85.0964050  52.9099080  31.8389460  85.8788080
  60.1265860  42.4278590  77.4008050  59.5083130  42.8928040  76.8370770
  60.6389110  43.1206070  77.8177560  54.9897620  41.9554460  84.0791650
  54.6567000  42.5823380  84.7212720  55.1664300  42.4816340  83.2993320
  63.5031530  35.7699540  81.5467990  62.7987100  36.0584430  82.1271100
  63.8643690  36.5799650  81.1867550  53.4210100  34.0269240  83.9088600
  53.7626910  34.8711290  83.6142470  52.4825910  34.1752980  84.0253940
  54.2016720  43.9235260  85.8940830  54.8190720  44.5986340  85.6125280
  53.3409840  44.3323240  85.8028330  49.4949060  43.1135120  74.7747680
  49.1177040  43.6022220  74.0432580  49.7522130  43.7860400  75.4054210
  65.1194310  45.3874670  83.8095470  64.4357830  46.0573780  83.8012140
  65.6588600  45.5855320  83.0440330  66.5718450  35.2154330  81.9377200
  65.6243360  35.2493310  82.0692630  66.8968440  36.0293280  82.3226560
  57.1037990  31.5151510  80.2333190  57.4112970  30.9598400  79.5168690
  56.1738690  31.6495970  80.0506180  62.6553050  47.2318800  82.5240650
  62.6680210  46.8281090  81.6562910  62.1028270  48.0066090  82.4202080
  63.9498470  43.9535020  77.6130820  63.8394800  43.0109350  77.7380240
  63.9466720  44.3150660  78.4993580  62.0538490  42.1348640  83.8523260
  62.4707280  41.9208750  83.0176720  62.7778310  42.3921430  84.4231880
  59.4918750  39.5800340  76.9693310  58.5648030  39.5137720  77.1981780
  59.6443570  40.5180470  76.8548550  59.4787830  35.8517340  73.9660470
  58.5391500  36.0131300  74.0512930  59.7971090  36.5703020  73.4196460
  66.0000590  40.5335860  83.9439500  65.1719220  40.6028950  83.4689630
  66.5951070  41.1190170  83.4755330  63.5216040  41.1420640  77.4728560
  62.9028460  40.8040190  76.8254860  63.5040490  40.4980400  78.1807750
  62.9642600  37.3205180  84.8894370  62.5513780  38.1458890  85.1434360
  62.2318550  36.7350220  84.6970730  55.0975390  40.1065080  79.7513040
  54.6932390  39.3942330  79.2558940  55.1838510  39.7618320  80.6401080
  55.5657090  43.7932640  81.9152250  55.2685380  43.1878110  81.2360030
  56.5156910  43.8309950  81.8041610  53.8104010  36.8808290  83.5312080
  54.3618600  36.9903630  82.7565330  54.3247520  37.2545890  84.2467310
  63.6542700  47.3664510  85.5775350  63.1773260  48.1736700  85.3847960
  62.9704490  46.7142840  85.7301560  61.6980740  40.3807450  74.4801310
  62.1374020  39.5429880  74.3339130  62.4109160  41.0136850  74.5665450
  59.8076120  45.3203520  78.4482550  60.2472030  46.0627850  78.0337940
  59.7463010  45.5630090  79.3721510  65.2797880  31.6350260  72.7942350
  64.9670540  31.7277090  73.6941420  66.0410350  32.2131290  72.7439780
  51.7980020  39.0010060  77.2519690  51.6777620  39.7272150  76.6400960
  51.4880910  38.2312970  76.7747600  49.4365390  42.1725200  83.0588330
  49.5145810  42.3073970  82.1144050  50.0507070  41.4641090  83.2516450
  50.6813020  43.8725390  79.4694510  50.2741100  44.0139980  78.6148110
  51.5726030  43.5885550  79.2665720  62.4746300  48.3072640  75.8045560
  62.3147440  48.0175580  76.7027390  62.3093010  47.5312770  75.2690790
  54.9534680  48.0871170  77.5817180  54.7777160  47.1706710  77.3684980
  54.0990420  48.4458460  77.8214980  62.1772430  45.8160200  74.3643560
  61.4837590  45.8137490  73.7045840  62.9195290  45.3919520  73.9337730
  61.7422360  47.4422910  78.4392050  62.1979310  46.6612290  78.7530670
  62.0814880  48.1529730  78.9833230  49.4924910  43.2139370  85.5982790
  49.6555950  42.7444730  84.7802160  49.9577360  42.7062930  86.2631630
  54.2643680  32.3445130  80.6343360  53.8211830  33.1254670  80.3027880
  54.8228670  32.6675020  81.3414300  57.3802500  31.9655830  75.5149190
  56.7556680  31.9615700  76.2402500  57.2932620  31.0986790  75.1185160
  56.3019580  32.8892460  82.4932960  56.5991910  33.7955290  82.4124980
  56.8505140  32.4011240  81.8792530  54.0557900  37.4678700  78.3624610
  53.8298820  37.2515870  79.2671230  53.2750430  37.9007160  78.0170580
  61.2855660  37.4742070  76.9615260  60.6864550  38.1977870  76.7778880
  61.8335270  37.4118850  76.1791710  59.8920530  36.1105610  78.9918540
  60.2850100  36.4277810  78.1787230  60.2537380  35.2317490  79.1063060
  48.9284700  32.7006410  81.2148740  48.6397750  33.2709270  81.9273720
  49.6730460  32.2210860  81.5779970  49.1154930  36.6426530  72.4251460
  49.0329600  37.5857290  72.5666450  48.7637990  36.5001440  71.5463810
  60.4775670  38.7011360  83.0869320  59.7456790  39.2098170  83.4359420
  60.0800010  37.8841340  82.7858100  56.9153060  35.3765560  81.4921810
  56.9189120  34.9355510  80.6426350  57.8104180  35.6982890  81.5993630
  52.7655440  35.2592050  80.4516020  52.4255490  35.7367280  81.2083070
  52.0032760  34.8057170  80.0917120  56.9773210  36.3777640  74.4828570
  57.0986030  36.3364120  75.4314390  56.5921720  37.2401790  74.3275300
  60.9401580  34.1545040  82.4992260  60.9574320  34.6053690  83.3434110
  60.6917160  33.2550680  82.7125700  55.9894710  38.6878780  73.8811870
  55.4211610  38.2397030  73.2547780  56.6983710  39.0471560  73.3477020
  57.2161030  39.4367340  83.2387220  57.5831160  38.9625910  83.9848560
  57.0266090  40.3108910  83.5795560  50.0801520  34.1811030  79.3680690
  49.7948440  33.8166700  80.2059310  50.0180380  33.4491490  78.7543830
  55.0060400  38.4775980  85.5571430  54.7017470  39.3567960  85.7821790
  55.9606860  38.5375770  85.5928870  53.5342190  42.6836970  76.1538280
  52.7604450  42.1434590  75.9937000  54.2636820  42.1643580  75.8156040
  64.2930170  41.6802330  81.9464670  65.0129290  42.1757620  81.5560780
  64.0911990  41.0020220  81.3018540  59.7540110  33.0740290  76.0894060
  58.9404720  32.5753460  76.0139370  59.5602060  33.9138540  75.6730410
  62.4688500  37.4459940  74.3856220  63.3568120  37.7577170  74.2107560
  62.4393590  36.5732190  73.9936800  53.5779590  42.3517350  79.7917090
  54.0958260  41.5485610  79.7373980  53.1263610  42.2896490  80.6333920
  58.4649090  43.6183630  75.0644390  58.8064790  44.3625860  74.5687710
  57.6361800  43.9314750  75.4269220  64.7402770  38.7571780  73.8536080
  64.6566490  39.1886000  73.0032520  65.4596960  39.2170130  74.2862900
  65.7690020  45.6114040  76.5818210  65.1266180  44.9569660  76.8561930
  65.3820680  46.0169130  75.8058880  61.3476500  42.9399470  80.4289900
  61.7000320  42.3427600  79.7691270  60.4638830  42.6143700  80.5998150
  57.4339780  43.6997160  77.8360310  58.1210910  44.2466370  78.2167900
  56.6472200  44.2437890  77.8709920  49.5732180  39.3169980  73.3277390
  50.4427030  39.5994780  73.6113310  49.0822500  40.1305850  73.2126200
  56.7366990  40.7043190  77.4485670  57.1929770  41.5148440  77.6745860
  56.3855200  40.3866330  78.2804160  59.0399600  46.2149530  84.6777970
  59.6841820  46.4208910  85.3551390  59.4029040  45.4537930  84.2248820
  52.6378770  31.0480840  77.9208190  52.5093400  31.0398740  78.8693110
  51.8140790  31.3863930  77.5699200  60.3131680  44.2181880  83.3955420
  60.9553910  43.5175040  83.5087590  60.8381030  44.9980320  83.2152310
  64.1587400  44.5030500  73.1194560  63.9324980  43.7860940  73.7119200
  63.7683600  44.2542940  72.2816310  49.9403430  48.5297360  73.8939020
  50.3001070  49.1286700  73.2396290  49.7995770  49.0757250  74.6674050
  63.7403650  42.4202440  74.7808720  63.4525350  42.8815130  75.5686600
  64.5355820  41.9600210  75.0492940  55.9572050  45.9128560  74.7112690
  55.9482150  46.6458250  74.0957200  55.0370410  45.6660140  74.8039650
  51.5578690  41.1343450  75.4559450  50.9506640  41.8742350  75.4654750
  52.0328040  41.2242810  74.6297650  61.1311480  35.2994270  85.1316340
  61.4992300  34.4789480  85.4595910  60.2709680  35.3596160  85.5471990
  64.4973510  34.2551210  75.9403900  63.8686670  34.3596880  75.2262130
  64.0025430  34.4747990  76.7297780  58.9431650  45.9756800  73.3737880
  59.0443630  45.7720790  72.4439860  58.0433390  45.7215080  73.5785660
  56.4657540  36.5337160  77.3561780  55.7573690  37.0023500  77.7975390
  56.7502020  35.8759170  77.9906970  58.0913470  37.9533860  85.3554310
  58.5898720  38.4279680  86.0206160  58.2336420  37.0297380  85.5624340
  60.4972970  33.2587820  78.7957570  60.3740750  33.2773950  77.8467080
  61.4457530  33.3066760  78.9155970  57.5849760  48.4943120  78.0685550
  57.8391260  48.4564510  77.1464920  56.6362240  48.3676450  78.0613800
  54.6692560  34.8422240  74.7312490  55.5183090  35.2792390  74.6652680
  54.3023830  35.1542500  75.5584550  63.5902340  39.4135000  79.6444060
  62.6492480  39.4285230  79.8191750  63.9046410  38.6270960  80.0904360
  53.5683980  41.0954600  73.2048020  54.3347250  40.9835960  73.7673450
  53.6458670  40.3992570  72.5524790  52.2630740  38.5279670  73.8880910
  52.3434330  37.5807180  73.9998310  53.1550490  38.8586550  73.9941570
  65.5927920  46.5843850  81.3198320  65.7175340  47.4075020  81.7922130
  66.4593480  46.3734580  80.9722470  53.0645450  48.6775060  80.9915450
  53.8007930  48.1290520  81.2624020  53.4486370  49.5431070  80.8521440
  49.9490930  44.7448630  76.8656960  49.0230710  44.9869770  76.8562370
  50.4147360  45.5722890  76.7441710  56.1747760  47.8505370  72.8141020
  56.9676370  48.1394200  72.3622810  55.6552110  47.4197540  72.1353500
  65.2277930  47.0775500  74.2377760  64.9419440  46.6640640  73.4231940
  65.0297480  48.0063210  74.1178280  56.6925160  43.0708780  72.6783370
  56.5875800  42.4561130  73.4044750  56.5249380  42.5474670  71.8946380
  59.9327890  42.1328810  73.2825360  59.3837990  42.5798110  73.9268100
  60.5547150  41.6278060  73.8063030  55.6003010  41.0919730  75.1790660
  56.0219430  40.9259600  76.0222050  55.7253850  40.2819960  74.6845800
  58.1130650  40.1157340  72.4267760  58.6336310  39.4006360  72.0608910
  58.7599050  40.7543210  72.7268270  57.0164170  32.5951890  85.0986320
  56.5681470  32.6176150  84.2531870  56.3829370  32.1970910  85.6956620
  57.4223720  41.4906220  85.7198760  57.8411830  42.3338950  85.5475000
  56.5032350  41.6278260  85.4905540  54.4961910  37.1652960  72.1248820
  54.2950970  36.3020320  72.4862160  54.3253960  37.0786320  71.1870420
  61.9750220  31.9761190  74.6535700  62.2552510  31.1329090  75.0095120
  61.2015950  32.2084300  75.1674450  53.2944710  34.2653580  72.1126700
  53.5970610  34.2721010  71.2045850  54.0339300  33.9151440  72.6094360
  56.5129640  33.2088200  73.0982900  56.1651640  32.5312190  72.5185350
  56.7142410  32.7477710  73.9126290  58.6778680  48.1968950  74.7169500
  59.5729470  48.5353920  74.7388260  58.7096310  47.4748360  74.0893780
  52.3174840  43.5696000  72.9456500  52.7549710  44.1125670  73.6014080
  52.8022570  42.7442950  72.9552840  49.5320640  46.3585030  80.3976760
  49.8623650  45.4906090  80.1655400  49.9611640  46.5643550  81.2281720
  54.1282560  44.6894040  78.0578730  53.8278100  44.5659010  78.9582640
  54.0220050  43.8302630  77.6494460  50.0210850  47.2255620  83.1358390
  49.5841840  47.4056420  83.9682540  50.5888530  47.9830240  82.9940110
  66.8974480  44.4690440  72.7605410  66.0667440  44.5367090  73.2312640
  67.0746310  45.3594560  72.4572270  66.3530940  41.2137920  75.2639610
  67.1149850  41.7834570  75.3699300  66.3685310  40.6465120  76.0347920
  49.8535280  39.7375850  79.4947270  49.1984120  39.4687490  78.8506970
  50.6913230  39.6280330  79.0449250  67.3590910  42.0688020  80.1081540
  67.7299740  41.2855340  79.7017510  67.9992840  42.7577120  79.9298840
  64.3424670  43.4524600  85.5211860  63.5284510  43.8821760  85.7837650
  64.7498870  44.0643010  84.9080910  66.4050110  41.5072290  72.4212130
  66.6798950  42.4151170  72.2931350  66.2160850  41.4434820  73.3574120
  62.8025720  34.5317140  73.7165760  63.2210600  34.3448120  72.8762420
  62.4961780  33.6796190  74.0268690  66.3015450  39.4441280  77.4141560
  65.9259050  38.6769210  76.9822850  65.5718570  39.8263980  77.9016490
  50.8911210  40.1228420  84.0350610  51.2584250  40.0355820  84.9146630
  50.3222030  39.3594970  83.9357470  49.0673360  36.9474780  75.4372600
  48.1637440  37.2104980  75.2624260  49.5513980  37.2185950  74.6572560
  65.5766410  37.6698770  80.7148800  66.1003890  37.1761420  80.0838970
  66.1625830  37.8049130  81.4596370  65.7556130  37.7538640  84.2368350
  64.8058840  37.7202180  84.3513340  65.9369140  38.6638750  84.0018120
  51.6100570  36.0040320  73.3466980  52.3192270  35.5823540  72.8614260
  50.8940510  36.0715550  72.7150330  51.2574730  32.0579650  72.3869630
  51.9802860  32.5988590  72.7050850  51.5299250  31.7843070  71.5111170
  65.0666380  36.9272120  76.6541210  65.5625500  36.6942990  77.4390090
  64.8682450  36.0883960  76.2378850  50.9466920  31.3085840  82.2892250
  51.5943110  30.7583220  81.8487410  51.3668760  31.5628990  83.1108060
  66.4953540  35.5633070  79.1878890  66.3852820  35.4089110  80.1261160
  67.2561130  35.0354010  78.9454300  64.8419260  31.5027200  85.6461890
  65.4791480  32.1161340  86.0121080  64.9894150  31.5387860  84.7011120
  67.3843810  33.3940990  72.4285030  68.3093120  33.2622170  72.2203320
  67.3619600  33.4733810  73.3821480  67.4582300  34.1651650  75.0541740
  66.6633800  34.0996770  75.5834650  67.6625580  35.1002290  75.0427090
  64.4000720  48.2043200  79.0480130  64.9959790  47.8827770  78.3714550
  64.6578870  47.7315020  79.8393400  50.6998920  31.4641510  85.0317570
  50.3513740  31.9205330  85.7975750  50.3686620  30.5698640  85.1140000
  56.0069320  46.1920700  84.7980480  55.7660680  46.4595260  83.9111000
  56.9471960  46.3626430  84.8531340  67.2673480  48.2115080  85.5991120
  66.7731760  48.6083950  84.8818250  66.6586770  47.5864290  85.9928400
  61.5906340  30.8755590  84.5198570  60.7166180  31.2090700  84.3171500
  61.4817090  30.4028770  85.3450440  62.4978320  33.0826460  85.9040290
  62.1691680  32.2678220  85.5242020  63.4460620  33.0396270  85.7805980
  64.9512930  48.8538500  82.8777860  64.4915900  49.6054310  82.5035880
  64.3225390  48.1344970  82.8192660  51.7763550  44.9481740  85.2676580
  51.0497610  44.3287030  85.2002530  51.8372700  45.3422350  84.3974660
  55.3808650  47.1626740  82.0525990  55.8973670  46.5514100  81.5274250
  56.0306030  47.6655520  82.5437000  58.1204150  48.0535230  82.8794970
  58.4081960  47.7989530  82.0027980  58.6327370  47.5012590  83.4700540
  59.3381160  31.7925430  83.4591480  58.5552950  32.2670930  83.7388240
  59.0444090  30.8880260  83.3504660  63.8902230  32.4948530  81.5040570
  64.3310320  32.4393630  80.6562170  63.6209820  33.4106540  81.5750750
  65.7540800  32.1263770  79.5149390  65.6929200  31.1824990  79.3680410
  66.5332830  32.2343860  80.0602850  50.0593550  48.2656130  78.4773340
  49.8915590  47.6326810  79.1755230  49.1928060  48.4715530  78.1267530
  50.6821570  32.0972910  75.9805200  51.4400930  32.2101790  75.4069230
  50.2198740  32.9342110  75.9348630  57.2235380  34.2112180  78.9707510
  56.4109890  33.8369070  78.6303390  57.7277020  33.4557260  79.2728700
  61.7260360  30.8754630  80.2090580  62.3289730  31.4474840  80.6839100
  60.9853350  31.4394070  79.9864480  64.8694960  31.2776190  75.4830860
  65.0645590  32.1759640  75.7498290  64.0824830  31.0463270  75.9763810
  51.6656250  46.9589360  75.9223480  51.1403870  47.3397390  75.2185440
  51.5900830  47.5840130  76.6433190  53.0546720  32.6236960  74.5207170
  53.5839480  31.8366760  74.3915120  53.6875040  33.3028150  74.7542700
  55.2484560  32.3612100  77.5752560  54.6187300  31.6599410  77.7422690
  54.7089700  33.1216230  77.3585720  66.4221570  48.5176900  77.2437420
  66.5973760  47.8314640  76.5998340  65.7243140  49.0423950  76.8514090
  54.2649220  48.9071740  74.7972730  54.9968040  48.6231020  74.2496620
  54.5242890  48.6685020  75.6872110  53.4264010  45.0236470  74.8019060
  52.7972890  45.4921570  75.3504890  53.5411840  44.1785690  75.2365250
  60.8813730  39.0742130  60.9520260  60.8007780  38.1596740  60.6811970
  60.4678150  39.5709200  60.2459970  59.0131770  40.8521150  62.8329530
  58.2373870  40.3721590  63.1228100  59.6644700  40.1726800  62.6585690
  53.0297600  41.1640960  63.7105290  52.1982480  40.9089670  64.1101800
  53.6378580  41.2351730  64.4463210  63.0339200  45.2581340  61.6128660
  62.5720730  44.4868580  61.9415830  63.8464750  45.2847410  62.1181110
  53.0098860  45.1981050  63.9063310  53.3126900  44.3078790  63.7273530
  53.7542450  45.7551270  63.6785560  51.4389550  36.1242850  57.4947680
  50.5506250  36.4658820  57.3927560  51.7230740  35.9243170  56.6028510
  49.4022560  38.7248500  63.3787380  49.9738670  37.9570700  63.3791020
  49.4024100  39.0237260  62.4693990  59.2602510  47.5439350  61.2332650
  58.6413950  47.9996850  60.6627090  60.1154290  47.6990810  60.8322350
  58.4540760  43.5278340  62.8399690  58.3849040  42.5868280  62.6788820
  59.2160620  43.6179750  63.4122260  50.6447430  34.1332860  65.1656310
  50.4650270  33.2358610  65.4459070  50.2427510  34.6804730  65.8403260
  59.4845930  36.3348720  63.0668620  59.8610750  35.4620600  62.9542290
  59.3865440  36.6707420  62.1759060  53.6150940  34.7074350  58.5286060
  53.7217690  35.6078080  58.8354820  52.7043300  34.6592320  58.2380710
  63.2670050  33.8299160  59.9996960  64.0879670  33.3395730  60.0422440
  63.3004130  34.4196820  60.7528800  51.2634100  36.6293360  63.7738650
  51.9444210  36.8931730  64.3926050  50.9482150  35.7894230  64.1076660
  55.4558670  37.6760720  62.8611240  55.9636890  38.1741690  63.5016260
  55.9871910  36.8995920  62.6850600  67.5569600  35.8465910  66.5640590
  66.8521770  36.2347620  66.0455700  67.8227520  36.5416200  67.1661520
  53.7394770  32.3159280  67.1274660  53.7413210  32.8331670  66.3220560
  52.9099080  31.8389460  67.1044590  60.1265860  42.4278590  58.6264560
  59.5083130  42.8928040  58.0627280  60.6389110  43.1206070  59.0434070
  54.9897620  41.9554460  65.3048160  54.6567000  42.5823380  65.9469230
  55.1664300  42.4816340  64.5249830  63.5031530  35.7699540  62.7724500
  62.7987100  36.0584430  63.3527610  63.8643690  36.5799650  62.4124060
  53.4210100  34.0269240  65.1345110  53.7626910  34.8711290  64.8398980
  52.4825910  34.1752980  65.2510450  54.2016720  43.9235260  67.1197340
  54.8190720  44.5986340  66.8381790  53.3409840  44.3323240  67.0284840
  65.1194310  45.3874670  65.0351980  64.4357830  46.0573780  65.0268650
  65.6588600  45.5855320  64.2696840  66.5718450  35.2154330  63.1633710
  65.6243360  35.2493310  63.2949140  66.8968440  36.0293280  63.5483070
  57.1037990  31.5151510  61.4589700  57.4112970  30.9598400  60.7425200
  56.1738690  31.6495970  61.2762690  62.6553050  47.2318800  63.7497160
  62.6680210  46.8281090  62.8819420  62.1028270  48.0066090  63.6458590
  63.9498470  43.9535020  58.8387330  63.8394800  43.0109350  58.9636750
  63.9466720  44.3150660  59.7250090  62.0538490  42.1348640  65.0779770
  62.4707280  41.9208750  64.2433230  62.7778310  42.3921430  65.6488390
  59.4918750  39.5800340  58.1949820  58.5648030  39.5137720  58.4238290
  59.6443570  40.5180470  58.0805060  59.4787830  35.8517340  55.1916980
  58.5391500  36.0131300  55.2769440  59.7971090  36.5703020  54.6452970
  66.0000590  40.5335860  65.1696010  65.1719220  40.6028950  64.6946140
  66.5951070  41.1190170  64.7011840  63.5216040  41.1420640  58.6985070
  62.9028460  40.8040190  58.0511370  63.5040490  40.4980400  59.4064260
  62.9642600  37.3205180  66.1150880  62.5513780  38.1458890  66.3690870
  62.2318550  36.7350220  65.9227240  55.0975390  40.1065080  60.9769550
  54.6932390  39.3942330  60.4815450  55.1838510  39.7618320  61.8657590
  55.5657090  43.7932640  63.1408760  55.2685380  43.1878110  62.4616540
  56.5156910  43.8309950  63.0298120  53.8104010  36.8808290  64.7568590
  54.3618600  36.9903630  63.9821840  54.3247520  37.2545890  65.4723820
  63.6542700  47.3664510  66.8031860  63.1773260  48.1736700  66.6104470
  62.9704490  46.7142840  66.9558070  54.6575520  43.5314330  69.7916560
  53.7604050  43.7554300  70.0389960  54.6828390  43.6549270  68.8427960
  61.6980740  40.3807450  55.7057820  62.1374020  39.5429880  55.5595640
  62.4109160  41.0136850  55.7921960  53.4846740  40.4027650  68.3673930
  53.3454510  41.2750450  68.7361330  52.6028100  40.0600460  68.2221870
  59.8076120  45.3203520  59.6739060  60.2472030  46.0627850  59.2594450
  59.7463010  45.5630090  60.5978020  55.2827090  46.3449350  70.5759080
  55.2542520  46.7492300  69.7087510  55.1192060  45.4159710  70.4130680
  65.2797880  31.6350260  54.0198860  64.9670540  31.7277090  54.9197930
  66.0410350  32.2131290  53.9696290  67.2341910  47.1276450  71.8723250
  67.7101630  47.6059340  72.5512330  67.8549070  47.0593940  71.1468750
  49.4365390  42.1725200  64.2844840  49.5145810  42.3073970  63.3400560
  50.0507070  41.4641090  64.4772960  50.6813020  43.8725390  60.6951020
  50.2741100  44.0139980  59.8404620  51.5726030  43.5885550  60.4922230
  66.6375160  44.3189300  69.0323260  66.7638220  44.0801180  68.1140440
  66.6796540  43.4873840  69.5045340  60.4991900  48.0217300  67.6018070
  61.0136570  47.9325310  68.4040500  59.6560980  48.3677000  67.8945980
  62.4746300  48.3072640  57.0302070  62.3147440  48.0175580  57.9283900
  62.3093010  47.5312770  56.4947300  54.9534680  48.0871170  58.8073690
  54.7777160  47.1706710  58.5941490  54.0990420  48.4458460  59.0471490
  62.1772430  45.8160200  55.5900070  61.4837590  45.8137490  54.9302350
  62.9195290  45.3919520  55.1594240  61.7422360  47.4422910  59.6648560
  62.1979310  46.6612290  59.9787180  62.0814880  48.1529730  60.2089740
  66.4899170  36.3721760  69.9973000  65.8743440  36.8801430  69.4688460
  66.1695590  35.4720090  69.9398940  49.4924910  43.2139370  66.8239300
  49.6555950  42.7444730  66.0058670  49.9577360  42.7062930  67.4888140
  54.2643680  32.3445130  61.8599870  53.8211830  33.1254670  61.5284390
  54.8228670  32.6675020  62.5670810  58.5513490  35.2113650  67.4635190
  58.0892860  35.4196670  68.2755130  58.1491600  34.3973000  67.1605860
  63.5518000  36.4322600  68.5931850  62.7011590  36.1328350  68.9140920
  63.3919790  36.6764610  67.6815670  60.6467710  37.9324350  70.6930640
  60.9721120  37.0988100  70.3532870  61.4348040  38.4552870  70.8408970
  57.3802500  31.9655830  56.7405700  56.7556680  31.9615700  57.4659010
  57.2932620  31.0986790  56.3441670  56.3019580  32.8892460  63.7189470
  56.5991910  33.7955290  63.6381490  56.8505140  32.4011240  63.1049040
  54.0557900  37.4678700  59.5881120  53.8298820  37.2515870  60.4927740
  53.2750430  37.9007160  59.2427090  61.2855660  37.4742070  58.1871770
  60.6864550  38.1977870  58.0035390  61.8335270  37.4118850  57.4048220
  56.4957110  38.3664280  70.2541390  56.4000710  37.4259010  70.1041790
  57.3389090  38.5879350  69.8589460  59.8920530  36.1105610  60.2175050
  60.2850100  36.4277810  59.4043740  60.2537380  35.2317490  60.3319570
  51.6267650  34.7777950  68.4075170  51.2331040  35.6253160  68.6147950
  50.9386050  34.1404320  68.5983810  58.2012700  34.8612920  71.4771910
  57.5111020  34.6685120  72.1118000  58.9445000  35.1447560  72.0096210
  48.9284700  32.7006410  62.4405250  48.6397750  33.2709270  63.1530230
  49.6730460  32.2210860  62.8036480  60.4775670  38.7011360  64.3125830
  59.7456790  39.2098170  64.6615930  60.0800010  37.8841340  64.0114610
  56.9153060  35.3765560  62.7178320  56.9189120  34.9355510  61.8682860
  57.8104180  35.6982890  62.8250140  52.7655440  35.2592050  61.6772530
  52.4255490  35.7367280  62.4339580  52.0032760  34.8057170  61.3173630
  56.9773210  36.3777640  55.7085080  57.0986030  36.3364120  56.6570900
  56.5921720  37.2401790  55.5531810  60.9401580  34.1545040  63.7248770
  60.9574320  34.6053690  64.5690620  60.6917160  33.2550680  63.9382210
  55.9894710  38.6878780  55.1068380  55.4211610  38.2397030  54.4804290
  56.6983710  39.0471560  54.5733530  64.3672330  31.5677220  69.5635150
  64.6918100  30.8366880  70.0893130  64.4028840  31.2490860  68.6616140
  51.0663890  42.5890800  68.9835110  50.6818680  41.9484470  69.5818070
  51.3776080  43.2926920  69.5529840  57.2161030  39.4367340  64.4643730
  57.5831160  38.9625910  65.2105070  57.0266090  40.3108910  64.8052070
  50.0801520  34.1811030  60.5937200  49.7948440  33.8166700  61.4315820
  50.0180380  33.4491490  59.9800340  55.0060400  38.4775980  66.7827940
  54.7017470  39.3567960  67.0078300  55.9606860  38.5375770  66.8185380
  64.2930170  41.6802330  63.1721180  65.0129290  42.1757620  62.7817290
  64.0911990  41.0020220  62.5275050  59.7540110  33.0740290  57.3150570
  58.9404720  32.5753460  57.2395880  59.5602060  33.9138540  56.8986920
  59.6748970  41.7511390  69.0590180  59.6086280  40.8307060  68.8047770
  59.0454110  41.8486830  69.7734820  62.4688500  37.4459940  55.6112730
  63.3568120  37.7577170  55.4364070  62.4393590  36.5732190  55.2193310
  53.5779590  42.3517350  61.0173600  54.0958260  41.5485610  60.9630490
  53.1263610  42.2896490  61.8590430  58.4649090  43.6183630  56.2900900
  58.8064790  44.3625860  55.7944220  57.6361800  43.9314750  56.6525730
  51.0624130  39.3178720  67.9299300  50.7039070  39.9832570  68.5172640
  50.7678690  38.4862270  68.3011920  54.2637250  39.7762960  70.8138850
  53.9637390  39.9220140  69.9166670  55.0348490  39.2168250  70.7212240
  59.6065700  44.5731960  68.8093980  59.6210240  43.6412920  68.5912890
  58.8990800  44.6591720  69.4483750  64.7402770  38.7571780  55.0792590
  64.6566490  39.1886000  54.2289030  65.4596960  39.2170130  55.5119410
  65.8176910  41.2139300  68.1562560  65.0925100  41.8068080  67.9591950
  66.3452370  41.2062840  67.3575930  65.7690020  45.6114040  57.8074720
  65.1266180  44.9569660  58.0818440  65.3820680  46.0169130  57.0315390
  61.3476500  42.9399470  61.6546410  61.7000320  42.3427600  60.9947780
  60.4638830  42.6143700  61.8254660  57.4339780  43.6997160  59.0616820
  58.1210910  44.2466370  59.4424410  56.6472200  44.2437890  59.0966430
  56.7366990  40.7043190  58.6742180  57.1929770  41.5148440  58.9002370
  56.3855200  40.3866330  59.5060670  59.0399600  46.2149530  65.9034480
  59.6841820  46.4208910  66.5807900  59.4029040  45.4537930  65.4505330
  52.6378770  31.0480840  59.1464700  52.5093400  31.0398740  60.0949620
  51.8140790  31.3863930  58.7955710  60.3131680  44.2181880  64.6211930
  60.9553910  43.5175040  64.7344100  60.8381030  44.9980320  64.4408820
  64.1587400  44.5030500  54.3451070  63.9324980  43.7860940  54.9375710
  63.7683600  44.2542940  53.5072820  62.0869300  45.0176780  67.8247990
  62.4225540  45.6043470  68.5025910  61.1669640  44.8869490  68.0545780
  49.6372700  32.8071960  68.6071400  48.9231220  33.0068880  69.2124010
  50.0567740  32.0311530  68.9786200  63.7403650  42.4202440  56.0065230
  63.4525350  42.8815130  56.7943110  64.5355820  41.9600210  56.2749450
  49.9245290  46.7952220  69.5937930  50.0336410  45.8546960  69.4533320
  49.2725850  47.0606970  68.9451660  57.9157880  45.0668110  70.9936050
  57.5954750  44.3477350  71.5381740  57.2416240  45.7423180  71.0672110
  55.9572050  45.9128560  55.9369200  55.9482150  46.6458250  55.3213710
  55.0370410  45.6660140  56.0296160  61.1311480  35.2994270  66.3572850
  61.4992300  34.4789480  66.6852420  60.2709680  35.3596160  66.7728500
  64.4973510  34.2551210  57.1660410  63.8686670  34.3596880  56.4518640
  64.0025430  34.4747990  57.9554290  58.9431650  45.9756800  54.5994390
  59.0443630  45.7720790  53.6696370  58.0433390  45.7215080  54.8042170
  56.4657540  36.5337160  58.5818290  55.7573690  37.0023500  59.0231900
  56.7502020  35.8759170  59.2163480  58.0913470  37.9533860  66.5810820
  58.5898720  38.4279680  67.2462670  58.2336420  37.0297380  66.7880850
  60.4972970  33.2587820  60.0214080  60.3740750  33.2773950  59.0723590
  61.4457530  33.3066760  60.1412480  57.5849760  48.4943120  59.2942060
  57.8391260  48.4564510  58.3721430  56.6362240  48.3676450  59.2870310
  54.6692560  34.8422240  55.9569000  55.5183090  35.2792390  55.8909190
  54.3023830  35.1542500  56.7841060  65.2980330  34.1701820  67.4239210
  64.7953930  34.9107220  67.7633020  66.1136990  34.5585820  67.1076000
  63.5902340  39.4135000  60.8700570  62.6492480  39.4285230  61.0448260
  63.9046410  38.6270960  61.3160870  52.2630740  38.5279670  55.1137420
  52.3434330  37.5807180  55.2254820  53.1550490  38.8586550  55.2198080
  65.5927920  46.5843850  62.5454830  65.7175340  47.4075020  63.0178640
  66.4593480  46.3734580  62.1978980  53.0645450  48.6775060  62.2171960
  53.8007930  48.1290520  62.4880530  53.4486370  49.5431070  62.0777950
  52.0703730  47.8621130  71.4057540  52.8716460  48.1833180  71.8192940
  51.5555550  47.5016710  72.1277450  56.1747760  47.8505370  54.0397530
  56.9676370  48.1394200  53.5879320  55.6552110  47.4197540  53.3610010
  60.9068360  43.9701000  71.3532950  60.3006520  43.9932600  70.6128700
  60.6022470  43.2384040  71.8900200  62.3368730  47.6981290  69.9642360
  63.2890480  47.6139310  69.9142600  62.1896950  48.3623000  70.6376150
  65.2277930  47.0775500  55.4634270  64.9419440  46.6640640  54.6488450
  65.0297480  48.0063210  55.3434790  49.7901540  40.3494590  70.3493590
  50.2940560  39.7701870  70.9209820  49.0508960  40.6334820  70.8869960
  56.6925160  43.0708780  53.9039880  56.5875800  42.4561130  54.6301260
  56.5249380  42.5474670  53.1202890  56.8439480  41.7565580  69.8829110
  56.0785150  42.3250580  69.7983780  57.0255440  41.4641790  68.9897340
  59.9327890  42.1328810  54.5081870  59.3837990  42.5798110  55.1524610
  60.5547150  41.6278060  55.0319540  63.9862830  43.4870910  70.4404130
  64.7272300  43.8246670  69.9371590  63.2235510  43.6562970  69.8873900
  51.8224620  38.4924180  71.2443660  51.8629960  38.1938050  72.1528890
  52.6770120  38.8931790  71.0851180  55.6003010  41.0919730  56.4047170
  56.0219430  40.9259600  57.2478560  55.7253850  40.2819960  55.9102310
  53.7630430  37.0716280  69.2118150  53.2326890  36.5807230  68.5841490
  54.4318500  37.5000480  68.6776080  58.1130650  40.1157340  53.6524270
  58.6336310  39.4006360  53.2865420  58.7599050  40.7543210  53.9524780
  62.6608490  41.5385740  68.9759340  63.0749510  41.6930820  69.8249760
  61.7259490  41.6640960  69.1385120  63.1330660  38.8781900  70.9798490
  63.7151430  38.1234220  70.8918970  63.3092430  39.4089340  70.2029970
  54.2502730  34.0378650  69.2915440  54.1559600  33.4199400  68.5666310
  53.6700120  34.7644940  69.0645350  57.0164170  32.5951890  66.3242830
  56.5681470  32.6176150  65.4788380  56.3829370  32.1970910  66.9213130
  57.4223720  41.4906220  66.9455270  57.8411830  42.3338950  66.7731510
  56.5032350  41.6278260  66.7162050  59.7587620  39.2222400  68.3293110
  59.8783830  38.6263540  69.0687950  60.6181620  39.2592090  67.9094410
  62.0975520  39.7759590  66.9055620  61.5710740  40.3002210  66.3020760
  62.4406860  40.4086980  67.5365350  54.4961910  37.1652960  53.3505330
  54.2950970  36.3020320  53.7118670  54.3253960  37.0786320  52.4126930
  55.2731140  47.7959230  68.0613000  54.7352230  48.5205290  67.7421700
  55.5265100  47.3189570  67.2710340  56.5256390  35.7643750  69.5868930
  57.1156080  35.4559600  70.2746750  55.7076630  35.2923500  69.7428830
  61.3449820  35.3809560  69.8201950  60.6565340  34.7191100  69.7551940
  62.0655840  34.9347830  70.2650410  61.9750220  31.9761190  55.8792210
  62.2552510  31.1329090  56.2351630  61.2015950  32.2084300  56.3930960
  53.2944710  34.2653580  53.3383210  53.5970610  34.2721010  52.4302360
  54.0339300  33.9151440  53.8350870  58.1293350  49.0310440  68.3199650
  58.0552050  49.9345580  68.6272020  57.2272190  48.7122340  68.2921720
  56.5129640  33.2088200  54.3239410  56.1651640  32.5312190  53.7441860
  56.7142410  32.7477710  55.1382800  58.6778680  48.1968950  55.9426010
  59.5729470  48.5353920  55.9644770  58.7096310  47.4748360  55.3150290
  54.1282560  44.6894040  59.2835240  53.8278100  44.5659010  60.1839150
  54.0220050  43.8302630  58.8750970  50.0210850  47.2255620  64.3614900
  49.5841840  47.4056420  65.1939050  50.5888530  47.9830240  64.2196620
  65.6573030  46.7272620  68.6492210  65.0575020  46.7865180  67.9056130
  65.7866930  45.7877600  68.7789060  66.8974480  44.4690440  53.9861920
  66.0667440  44.5367090  54.4569150  67.0746310  45.3594560  53.6828780
  66.3530940  41.2137920  56.4896120  67.1149850  41.7834570  56.5955810
  66.3685310  40.6465120  57.2604430  67.3590910  42.0688020  61.3338050
  67.7299740  41.2855340  60.9274020  67.9992840  42.7577120  61.1555350
  64.3424670  43.4524600  66.7468370  63.5284510  43.8821760  67.0094160
  64.7498870  44.0643010  66.1337420  66.4050110  41.5072290  53.6468640
  66.6798950  42.4151170  53.5187860  66.2160850  41.4434820  54.5830630
  62.8025720  34.5317140  54.9422270  63.2210600  34.3448120  54.1018930
  62.4961780  33.6796190  55.2525200  66.3015450  39.4441280  58.6398070
  65.9259050  38.6769210  58.2079360  65.5718570  39.8263980  59.1273000
  50.8911210  40.1228420  65.2607120  51.2584250  40.0355820  66.1403140
  50.3222030  39.3594970  65.1613980  65.6915070  38.5912800  68.2737590
  65.4601160  38.3625550  67.3735540  65.9519620  39.5112350  68.2282480
  50.4427210  37.0337510  69.1665540  49.5483260  37.0004270  69.5059250
  50.9824760  37.2324300  69.9316790  64.1303140  33.8169230  71.0517290
  65.0073320  33.8252630  71.4351290  64.1423980  33.0800070  70.4409640
  65.5766410  37.6698770  61.9405310  66.1003890  37.1761420  61.3095480
  66.1625830  37.8049130  62.6852880  65.7556130  37.7538640  65.4624860
  64.8058840  37.7202180  65.5769850  65.9369140  38.6638750  65.2274630
  51.6100570  36.0040320  54.5723490  52.3192270  35.5823540  54.0870770
  50.8940510  36.0715550  53.9406840  65.0666380  36.9272120  57.8797720
  65.5625500  36.6942990  58.6646600  64.8682450  36.0883960  57.4635360
  50.9466920  31.3085840  63.5148760  51.5943110  30.7583220  63.0743920
  51.3668760  31.5628990  64.3364570  66.4953540  35.5633070  60.4135400
  66.3852820  35.4089110  61.3517670  67.2561130  35.0354010  60.1710810
  64.8419260  31.5027200  66.8718400  65.4791480  32.1161340  67.2377590
  64.9894150  31.5387860  65.9267630  67.3843810  33.3940990  53.6541540
  68.3093120  33.2622170  53.4459830  67.3619600  33.4733810  54.6077990
  67.4582300  34.1651650  56.2798250  66.6633800  34.0996770  56.8091160
  67.6625580  35.1002290  56.2683600  64.4000720  48.2043200  60.2736640
  64.9959790  47.8827770  59.5971060  64.6578870  47.7315020  61.0649910
  50.6998920  31.4641510  66.2574080  50.3513740  31.9205330  67.0232260
  50.3686620  30.5698640  66.3396510  52.3063290  44.6361110  70.4227270
  52.2632920  44.2654020  71.3041730  52.4374300  45.5738680  70.5629090
  56.0069320  46.1920700  66.0236990  55.7660680  46.4595260  65.1367510
  56.9471960  46.3626430  66.0787850  58.2123740  32.6553390  69.7793500
  58.1512630  33.2475220  70.5288910  59.1524120  32.5479350  69.6343760
  60.8498300  32.3123450  69.4185790  61.4638710  32.6302740  68.7566870
  61.3947860  31.8272040  70.0381650  67.2673480  48.2115080  66.8247630
  66.7731760  48.6083950  66.1074760  66.6586770  47.5864290  67.2184910
  51.3719560  30.9917710  69.5324850  51.9202550  30.8105760  68.7690960
  51.4374870  30.2011820  70.0681160  52.1451320  47.5823360  67.5425050
  51.5511640  47.4508060  68.2815090  52.1375160  46.7461500  67.0767150
  61.5906340  30.8755590  65.7455080  60.7166180  31.2090700  65.5428010
  61.4817090  30.4028770  66.5706950  62.4978320  33.0826460  67.1296800
  62.1691680  32.2678220  66.7498530  63.4460620  33.0396270  67.0062490
  64.9512930  48.8538500  64.1034370  64.4915900  49.6054310  63.7292390
  64.3225390  48.1344970  64.0449170  51.7763550  44.9481740  66.4933090
  51.0497610  44.3287030  66.4259040  51.8372700  45.3422350  65.6231170
  55.3808650  47.1626740  63.2782500  55.8973670  46.5514100  62.7530760
  56.0306030  47.6655520  63.7693510  58.1204150  48.0535230  64.1051480
  58.4081960  47.7989530  63.2284490  58.6327370  47.5012590  64.6957050
  59.3381160  31.7925430  64.6847990  58.5552950  32.2670930  64.9644750
  59.0444090  30.8880260  64.5761170  63.8902230  32.4948530  62.7297080
  64.3310320  32.4393630  61.8818680  63.6209820  33.4106540  62.8007260
  65.7540800  32.1263770  60.7405900  65.6929200  31.1824990  60.5936920
  66.5332830  32.2343860  61.2859360  50.6821570  32.0972910  57.2061710
  51.4400930  32.2101790  56.6325740  50.2198740  32.9342110  57.1605140
  57.2235380  34.2112180  60.1964020  56.4109890  33.8369070  59.8559900
  57.7277020  33.4557260  60.4985210  61.7260360  30.8754630  61.4347090
  62.3289730  31.4474840  61.9095610  60.9853350  31.4394070  61.2120990
  64.8694960  31.2776190  56.7087370  65.0645590  32.1759640  56.9754800
  64.0824830  31.0463270  57.2020320  53.0546720  32.6236960  55.7463680
  53.5839480  31.8366760  55.6171630  53.6875040  33.3028150  55.9799210
  55.2484560  32.3612100  58.8009070  54.6187300  31.6599410  58.9679200
  54.7089700  33.1216230  58.5842230  58.1876510  48.9751330  71.4719680
  59.1143820  48.7395600  71.5155640  58.1726940  49.8023330  70.9905710
  66.4221570  48.5176900  58.4693930  66.5973760  47.8314640  57.8254850
  65.7243140  49.0423950  58.0770600  55.3740120  31.6396080  71.2361560
  55.0924390  32.1429680  70.4722380  55.7559820  30.8417830  70.8703690
  54.2649220  48.9071740  56.0229240  54.9968040  48.6231020  55.4753130
  54.5242890  48.6685020  56.9128620  61.9755580  31.0549660  71.8142030
  61.8621030  31.3744270  72.7093550  62.7925320  31.4562170  71.5179310
  64.7554070  48.2021190  71.2960720  65.5479390  47.7070420  71.0886680
  65.0487220  48.8811330  71.9036330  60.8813730  39.0742130  42.1776770
  60.8007780  38.1596740  41.9068480  60.4678150  39.5709200  41.4716480
  59.0131770  40.8521150  44.0586040  58.2373870  40.3721590  44.3484610
  59.6644700  40.1726800  43.8842200  63.0339200  45.2581340  42.8385170
  62.5720730  44.4868580  43.1672340  63.8464750  45.2847410  43.3437620
  51.4389550  36.1242850  38.7204190  50.5506250  36.4658820  38.6184070
  51.7230740  35.9243170  37.8285020  58.4540760  43.5278340  44.0656200
  58.3849040  42.5868280  43.9045330  59.2160620  43.6179750  44.6378770
  59.4845930  36.3348720  44.2925130  59.8610750  35.4620600  44.1798800
  59.3865440  36.6707420  43.4015570  53.6150940  34.7074350  39.7542570
  53.7217690  35.6078080  40.0611330  52.7043300  34.6592320  39.4637220
  63.2670050  33.8299160  41.2253470  64.0879670  33.3395730  41.2678950
  63.3004130  34.4196820  41.9785310  51.2634100  36.6293360  44.9995160
  51.9444210  36.8931730  45.6182560  50.9482150  35.7894230  45.3333170
  55.4558670  37.6760720  44.0867750  55.9636890  38.1741690  44.7272770
  55.9871910  36.8995920  43.9107110  67.5569600  35.8465910  47.7897100
  66.8521770  36.2347620  47.2712210  67.8227520  36.5416200  48.3918030
  60.1265860  42.4278590  39.8521070  59.5083130  42.8928040  39.2883790
  60.6389110  43.1206070  40.2690580  63.5031530  35.7699540  43.9981010
  62.7987100  36.0584430  44.5784120  63.8643690  36.5799650  43.6380570
  65.1194310  45.3874670  46.2608490  64.4357830  46.0573780  46.2525160
  65.6588600  45.5855320  45.4953350  66.5718450  35.2154330  44.3890220
  65.6243360  35.2493310  44.5205650  66.8968440  36.0293280  44.7739580
  57.1037990  31.5151510  42.6846210  57.4112970  30.9598400  41.9681710
  56.1738690  31.6495970  42.5019200  62.6553050  47.2318800  44.9753670
  62.6680210  46.8281090  44.1075930  62.1028270  48.0066090  44.8715100
  63.9498470  43.9535020  40.0643840  63.8394800  43.0109350  40.1893260
  63.9466720  44.3150660  40.9506600  62.0538490  42.1348640  46.3036280
  62.4707280  41.9208750  45.4689740  62.7778310  42.3921430  46.8744900
  59.4918750  39.5800340  39.4206330  58.5648030  39.5137720  39.6494800
  59.6443570  40.5180470  39.3061570  59.4787830  35.8517340  36.4173490
  58.5391500  36.0131300  36.5025950  59.7971090  36.5703020  35.8709480
  66.0000590  40.5335860  46.3952520  65.1719220  40.6028950  45.9202650
  66.5951070  41.1190170  45.9268350  63.5216040  41.1420640  39.9241580
  62.9028460  40.8040190  39.2767880  63.5040490  40.4980400  40.6320770
  62.9642600  37.3205180  47.3407390  62.5513780  38.1458890  47.5947380
  62.2318550  36.7350220  47.1483750  53.8104010  36.8808290  45.9825100
  54.3618600  36.9903630  45.2078350  54.3247520  37.2545890  46.6980330
  63.6542700  47.3664510  48.0288370  63.1773260  48.1736700  47.8360980
  62.9704490  46.7142840  48.1814580  54.6575520  43.5314330  51.0173070
  53.7604050  43.7554300  51.2646470  54.6828390  43.6549270  50.0684470
  61.6980740  40.3807450  36.9314330  62.1374020  39.5429880  36.7852150
  62.4109160  41.0136850  37.0178470  53.4846740  40.4027650  49.5930440
  53.3454510  41.2750450  49.9617840  52.6028100  40.0600460  49.4478380
  55.2827090  46.3449350  51.8015590  55.2542520  46.7492300  50.9344020
  55.1192060  45.4159710  51.6387190  65.2797880  31.6350260  35.2455370
  64.9670540  31.7277090  36.1454440  66.0410350  32.2131290  35.1952800
  51.7980020  39.0010060  39.7032710  51.6777620  39.7272150  39.0913980
  51.4880910  38.2312970  39.2260620  67.2341910  47.1276450  53.0979760
  67.7101630  47.6059340  53.7768840  67.8549070  47.0593940  52.3725260
  66.6375160  44.3189300  50.2579770  66.7638220  44.0801180  49.3396950
  66.6796540  43.4873840  50.7301850  60.4991900  48.0217300  48.8274580
  61.0136570  47.9325310  49.6297010  59.6560980  48.3677000  49.1202490
  62.4746300  48.3072640  38.2558580  62.3147440  48.0175580  39.1540410
  62.3093010  47.5312770  37.7203810  62.1772430  45.8160200  36.8156580
  61.4837590  45.8137490  36.1558860  62.9195290  45.3919520  36.3850750
  66.4899170  36.3721760  51.2229510  65.8743440  36.8801430  50.6944970
  66.1695590  35.4720090  51.1655450  54.2643680  32.3445130  43.0856380
  53.8211830  33.1254670  42.7540900  54.8228670  32.6675020  43.7927320
  58.5513490  35.2113650  48.6891700  58.0892860  35.4196670  49.5011640
  58.1491600  34.3973000  48.3862370  63.5518000  36.4322600  49.8188360
  62.7011590  36.1328350  50.1397430  63.3919790  36.6764610  48.9072180
  60.6467710  37.9324350  51.9187150  60.9721120  37.0988100  51.5789380
  61.4348040  38.4552870  52.0665480  57.3802500  31.9655830  37.9662210
  56.7556680  31.9615700  38.6915520  57.2932620  31.0986790  37.5698180
  56.3019580  32.8892460  44.9445980  56.5991910  33.7955290  44.8638000
  56.8505140  32.4011240  44.3305550  54.0557900  37.4678700  40.8137630
  53.8298820  37.2515870  41.7184250  53.2750430  37.9007160  40.4683600
  61.2855660  37.4742070  39.4128280  60.6864550  38.1977870  39.2291900
  61.8335270  37.4118850  38.6304730  56.4957110  38.3664280  51.4797900
  56.4000710  37.4259010  51.3298300  57.3389090  38.5879350  51.0845970
  59.8920530  36.1105610  41.4431560  60.2850100  36.4277810  40.6300250
  60.2537380  35.2317490  41.5576080  58.2012700  34.8612920  52.7028420
  57.5111020  34.6685120  53.3374510  58.9445000  35.1447560  53.2352720
  49.1154930  36.6426530  34.8764480  49.0329600  37.5857290  35.0179470
  48.7637990  36.5001440  33.9976830  60.4775670  38.7011360  45.5382340
  59.7456790  39.2098170  45.8872440  60.0800010  37.8841340  45.2371120
  56.9153060  35.3765560  43.9434830  56.9189120  34.9355510  43.0939370
  57.8104180  35.6982890  44.0506650  52.7655440  35.2592050  42.9029040
  52.4255490  35.7367280  43.6596090  52.0032760  34.8057170  42.5430140
  56.9773210  36.3777640  36.9341590  57.0986030  36.3364120  37.8827410
  56.5921720  37.2401790  36.7788320  60.9401580  34.1545040  44.9505280
  60.9574320  34.6053690  45.7947130  60.6917160  33.2550680  45.1638720
  55.9894710  38.6878780  36.3324890  55.4211610  38.2397030  35.7060800
  56.6983710  39.0471560  35.7990040  64.3672330  31.5677220  50.7891660
  64.6918100  30.8366880  51.3149640  64.4028840  31.2490860  49.8872650
  57.2161030  39.4367340  45.6900240  57.5831160  38.9625910  46.4361580
  57.0266090  40.3108910  46.0308580  50.0801520  34.1811030  41.8193710
  49.7948440  33.8166700  42.6572330  50.0180380  33.4491490  41.2056850
  55.0060400  38.4775980  48.0084450  54.7017470  39.3567960  48.2334810
  55.9606860  38.5375770  48.0441890  64.2930170  41.6802330  44.3977690
  65.0129290  42.1757620  44.0073800  64.0911990  41.0020220  43.7531560
  59.7540110  33.0740290  38.5407080  58.9404720  32.5753460  38.4652390
  59.5602060  33.9138540  38.1243430  59.6748970  41.7511390  50.2846690
  59.6086280  40.8307060  50.0304280  59.0454110  41.8486830  50.9991330
  62.4688500  37.4459940  36.8369240  63.3568120  37.7577170  36.6620580
  62.4393590  36.5732190  36.4449820  51.0624130  39.3178720  49.1555810
  50.7039070  39.9832570  49.7429150  50.7678690  38.4862270  49.5268430
  54.2637250  39.7762960  52.0395360  53.9637390  39.9220140  51.1423180
  55.0348490  39.2168250  51.9468750  59.6065700  44.5731960  50.0350490
  59.6210240  43.6412920  49.8169400  58.8990800  44.6591720  50.6740260
  64.7402770  38.7571780  36.3049100  64.6566490  39.1886000  35.4545540
  65.4596960  39.2170130  36.7375920  65.8176910  41.2139300  49.3819070
  65.0925100  41.8068080  49.1848460  66.3452370  41.2062840  48.5832440
  65.7690020  45.6114040  39.0331230  65.1266180  44.9569660  39.3074950
  65.3820680  46.0169130  38.2571900  61.3476500  42.9399470  42.8802920
  61.7000320  42.3427600  42.2204290  60.4638830  42.6143700  43.0511170
  49.5732180  39.3169980  35.7790410  50.4427030  39.5994780  36.0626330
  49.0822500  40.1305850  35.6639220  59.0399600  46.2149530  47.1290990
  59.6841820  46.4208910  47.8064410  59.4029040  45.4537930  46.6761840
  52.6378770  31.0480840  40.3721210  52.5093400  31.0398740  41.3206130
  51.8140790  31.3863930  40.0212220  60.3131680  44.2181880  45.8468440
  60.9553910  43.5175040  45.9600610  60.8381030  44.9980320  45.6665330
  64.1587400  44.5030500  35.5707580  63.9324980  43.7860940  36.1632220
  63.7683600  44.2542940  34.7329330  62.0869300  45.0176780  49.0504500
  62.4225540  45.6043470  49.7282420  61.1669640  44.8869490  49.2802290
  63.7403650  42.4202440  37.2321740  63.4525350  42.8815130  38.0199620
  64.5355820  41.9600210  37.5005960  57.9157880  45.0668110  52.2192560
  57.5954750  44.3477350  52.7638250  57.2416240  45.7423180  52.2928620
  61.1311480  35.2994270  47.5829360  61.4992300  34.4789480  47.9108930
  60.2709680  35.3596160  47.9985010  64.4973510  34.2551210  38.3916920
  63.8686670  34.3596880  37.6775150  64.0025430  34.4747990  39.1810800
  56.4657540  36.5337160  39.8074800  55.7573690  37.0023500  40.2488410
  56.7502020  35.8759170  40.4419990  58.0913470  37.9533860  47.8067330
  58.5898720  38.4279680  48.4719180  58.2336420  37.0297380  48.0137360
  60.4972970  33.2587820  41.2470590  60.3740750  33.2773950  40.2980100
  61.4457530  33.3066760  41.3668990  54.6692560  34.8422240  37.1825510
  55.5183090  35.2792390  37.1165700  54.3023830  35.1542500  38.0097570
  65.2980330  34.1701820  48.6495720  64.7953930  34.9107220  48.9889530
  66.1136990  34.5585820  48.3332510  63.5902340  39.4135000  42.0957080
  62.6492480  39.4285230  42.2704770  63.9046410  38.6270960  42.5417380
  53.5683980  41.0954600  35.6561040  54.3347250  40.9835960  36.2186470
  53.6458670  40.3992570  35.0037810  52.2630740  38.5279670  36.3393930
  52.3434330  37.5807180  36.4511330  53.1550490  38.8586550  36.4454590
  65.5927920  46.5843850  43.7711340  65.7175340  47.4075020  44.2435150
  66.4593480  46.3734580  43.4235490  60.9068360  43.9701000  52.5789460
  60.3006520  43.9932600  51.8385210  60.6022470  43.2384040  53.1156710
  62.3368730  47.6981290  51.1898870  63.2890480  47.6139310  51.1399110
  62.1896950  48.3623000  51.8632660  65.2277930  47.0775500  36.6890780
  64.9419440  46.6640640  35.8744960  65.0297480  48.0063210  36.5691300
  56.8439480  41.7565580  51.1085620  56.0785150  42.3250580  51.0240290
  57.0255440  41.4641790  50.2153850  59.9327890  42.1328810  35.7338380
  59.3837990  42.5798110  36.3781120  60.5547150  41.6278060  36.2576050
  63.9862830  43.4870910  51.6660640  64.7272300  43.8246670  51.1628100
  63.2235510  43.6562970  51.1130410  51.8224620  38.4924180  52.4700170
  51.8629960  38.1938050  53.3785400  52.6770120  38.8931790  52.3107690
  55.6003010  41.0919730  37.6303680  56.0219430  40.9259600  38.4735070
  55.7253850  40.2819960  37.1358820  53.7630430  37.0716280  50.4374660
  53.2326890  36.5807230  49.8098000  54.4318500  37.5000480  49.9032590
  58.1130650  40.1157340  34.8780780  58.6336310  39.4006360  34.5121930
  58.7599050  40.7543210  35.1781290  62.6608490  41.5385740  50.2015850
  63.0749510  41.6930820  51.0506270  61.7259490  41.6640960  50.3641630
  63.1330660  38.8781900  52.2055000  63.7151430  38.1234220  52.1175480
  63.3092430  39.4089340  51.4286480  54.2502730  34.0378650  50.5171950
  54.1559600  33.4199400  49.7922820  53.6700120  34.7644940  50.2901860
  57.0164170  32.5951890  47.5499340  56.5681470  32.6176150  46.7044890
  56.3829370  32.1970910  48.1469640  57.4223720  41.4906220  48.1711780
  57.8411830  42.3338950  47.9988020  56.5032350  41.6278260  47.9418560
  59.7587620  39.2222400  49.5549620  59.8783830  38.6263540  50.2944460
  60.6181620  39.2592090  49.1350920  62.0975520  39.7759590  48.1312130
  61.5710740  40.3002210  47.5277270  62.4406860  40.4086980  48.7621860
  54.4961910  37.1652960  34.5761840  54.2950970  36.3020320  34.9375180
  54.3253960  37.0786320  33.6383440  55.2731140  47.7959230  49.2869510
  54.7352230  48.5205290  48.9678210  55.5265100  47.3189570  48.4966850
  56.5256390  35.7643750  50.8125440  57.1156080  35.4559600  51.5003260
  55.7076630  35.2923500  50.9685340  61.3449820  35.3809560  51.0458460
  60.6565340  34.7191100  50.9808450  62.0655840  34.9347830  51.4906920
  61.9750220  31.9761190  37.1048720  62.2552510  31.1329090  37.4608140
  61.2015950  32.2084300  37.6187470  53.2944710  34.2653580  34.5639720
  53.5970610  34.2721010  33.6558870  54.0339300  33.9151440  35.0607380
  58.1293350  49.0310440  49.5456160  58.0552050  49.9345580  49.8528530
  57.2272190  48.7122340  49.5178230  56.5129640  33.2088200  35.5495920
  56.1651640  32.5312190  34.9698370  56.7142410  32.7477710  36.3639310
  65.6573030  46.7272620  49.8748720  65.0575020  46.7865180  49.1312640
  65.7866930  45.7877600  50.0045570  66.8974480  44.4690440  35.2118430
  66.0667440  44.5367090  35.6825660  67.0746310  45.3594560  34.9085290
  66.3530940  41.2137920  37.7152630  67.1149850  41.7834570  37.8212320
  66.3685310  40.6465120  38.4860940  67.3590910  42.0688020  42.5594560
  67.7299740  41.2855340  42.1530530  67.9992840  42.7577120  42.3811860
  64.3424670  43.4524600  47.9724880  63.5284510  43.8821760  48.2350670
  64.7498870  44.0643010  47.3593930  66.4050110  41.5072290  34.8725150
  66.6798950  42.4151170  34.7444370  66.2160850  41.4434820  35.8087140
  62.8025720  34.5317140  36.1678780  63.2210600  34.3448120  35.3275440
  62.4961780  33.6796190  36.4781710  66.3015450  39.4441280  39.8654580
  65.9259050  38.6769210  39.4335870  65.5718570  39.8263980  40.3529510
  65.6915070  38.5912800  49.4994100  65.4601160  38.3625550  48.5992050
  65.9519620  39.5112350  49.4538990  64.1303140  33.8169230  52.2773800
  65.0073320  33.8252630  52.6607800  64.1423980  33.0800070  51.6666150
  49.0673360  36.9474780  37.8885620  48.1637440  37.2104980  37.7137280
  49.5513980  37.2185950  37.1085580  65.5766410  37.6698770  43.1661820
  66.1003890  37.1761420  42.5351990  66.1625830  37.8049130  43.9109390
  65.7556130  37.7538640  46.6881370  64.8058840  37.7202180  46.8026360
  65.9369140  38.6638750  46.4531140  51.6100570  36.0040320  35.7980000
  52.3192270  35.5823540  35.3127280  50.8940510  36.0715550  35.1663350
  51.2574730  32.0579650  34.8382650  51.9802860  32.5988590  35.1563870
  51.5299250  31.7843070  33.9624190  65.0666380  36.9272120  39.1054230
  65.5625500  36.6942990  39.8903110  64.8682450  36.0883960  38.6891870
  66.4953540  35.5633070  41.6391910  66.3852820  35.4089110  42.5774180
  67.2561130  35.0354010  41.3967320  64.8419260  31.5027200  48.0974910
  65.4791480  32.1161340  48.4634100  64.9894150  31.5387860  47.1524140
  67.3843810  33.3940990  34.8798050  68.3093120  33.2622170  34.6716340
  67.3619600  33.4733810  35.8334500  67.4582300  34.1651650  37.5054760
  66.6633800  34.0996770  38.0347670  67.6625580  35.1002290  37.4940110
  64.4000720  48.2043200  41.4993150  64.9959790  47.8827770  40.8227570
  64.6578870  47.7315020  42.2906420  56.0069320  46.1920700  47.2493500
  55.7660680  46.4595260  46.3624020  56.9471960  46.3626430  47.3044360
  58.2123740  32.6553390  51.0050010  58.1512630  33.2475220  51.7545420
  59.1524120  32.5479350  50.8600270  60.8498300  32.3123450  50.6442300
  61.4638710  32.6302740  49.9823380  61.3947860  31.8272040  51.2638160
  67.2673480  48.2115080  48.0504140  66.7731760  48.6083950  47.3331270
  66.6586770  47.5864290  48.4441420  61.5906340  30.8755590  46.9711590
  60.7166180  31.2090700  46.7684520  61.4817090  30.4028770  47.7963460
  62.4978320  33.0826460  48.3553310  62.1691680  32.2678220  47.9755040
  63.4460620  33.0396270  48.2319000  64.9512930  48.8538500  45.3290880
  64.4915900  49.6054310  44.9548900  64.3225390  48.1344970  45.2705680
  58.1204150  48.0535230  45.3307990  58.4081960  47.7989530  44.4541000
  58.6327370  47.5012590  45.9213560  59.3381160  31.7925430  45.9104500
  58.5552950  32.2670930  46.1901260  59.0444090  30.8880260  45.8017680
  63.8902230  32.4948530  43.9553590  64.3310320  32.4393630  43.1075190
  63.6209820  33.4106540  44.0263770  65.7540800  32.1263770  41.9662410
  65.6929200  31.1824990  41.8193430  66.5332830  32.2343860  42.5115870
  50.6821570  32.0972910  38.4318220  51.4400930  32.2101790  37.8582250
  50.2198740  32.9342110  38.3861650  57.2235380  34.2112180  41.4220530
  56.4109890  33.8369070  41.0816410  57.7277020  33.4557260  41.7241720
  61.7260360  30.8754630  42.6603600  62.3289730  31.4474840  43.1352120
  60.9853350  31.4394070  42.4377500  64.8694960  31.2776190  37.9343880
  65.0645590  32.1759640  38.2011310  64.0824830  31.0463270  38.4276830
  53.0546720  32.6236960  36.9720190  53.5839480  31.8366760  36.8428140
  53.6875040  33.3028150  37.2055720  55.2484560  32.3612100  40.0265580
  54.6187300  31.6599410  40.1935710  54.7089700  33.1216230  39.8098740
  58.1876510  48.9751330  52.6976190  59.1143820  48.7395600  52.7412150
  58.1726940  49.8023330  52.2162220  66.4221570  48.5176900  39.6950440
  66.5973760  47.8314640  39.0511360  65.7243140  49.0423950  39.3027110
  55.3740120  31.6396080  52.4618070  55.0924390  32.1429680  51.6978890
  55.7559820  30.8417830  52.0960200  61.9755580  31.0549660  53.0398540
  61.8621030  31.3744270  53.9350060  62.7925320  31.4562170  52.7435820
  64.7554070  48.2021190  52.5217230  65.5479390  47.7070420  52.3143190
  65.0487220  48.8811330  53.1292840  60.8813730  39.0742130  23.4033280
  60.8007780  38.1596740  23.1324990  60.4678150  39.5709200  22.6972990
  59.0131770  40.8521150  25.2842550  58.2373870  40.3721590  25.5741120
  59.6644700  40.1726800  25.1098710  63.0339200  45.2581340  24.0641680
  62.5720730  44.4868580  24.3928850  63.8464750  45.2847410  24.5694130
  51.4389550  36.1242850  19.9460700  50.5506250  36.4658820  19.8440580
  51.7230740  35.9243170  19.0541530  59.2602510  47.5439350  23.6845670
  58.6413950  47.9996850  23.1140110  60.1154290  47.6990810  23.2835370
  58.4540760  43.5278340  25.2912710  58.3849040  42.5868280  25.1301840
  59.2160620  43.6179750  25.8635280  50.6447430  34.1332860  27.6169330
  50.4650270  33.2358610  27.8972090  50.2427510  34.6804730  28.2916280
  59.4845930  36.3348720  25.5181640  59.8610750  35.4620600  25.4055310
  59.3865440  36.6707420  24.6272080  53.6150940  34.7074350  20.9799080
  53.7217690  35.6078080  21.2867840  52.7043300  34.6592320  20.6893730
  63.2670050  33.8299160  22.4509980  64.0879670  33.3395730  22.4935460
  63.3004130  34.4196820  23.2041820  55.4558670  37.6760720  25.3124260
  55.9636890  38.1741690  25.9529280  55.9871910  36.8995920  25.1363620
  67.5569600  35.8465910  29.0153610  66.8521770  36.2347620  28.4968720
  67.8227520  36.5416200  29.6174540  53.7394770  32.3159280  29.5787680
  53.7413210  32.8331670  28.7733580  52.9099080  31.8389460  29.5557610
  60.1265860  42.4278590  21.0777580  59.5083130  42.8928040  20.5140300
  60.6389110  43.1206070  21.4947090  63.5031530  35.7699540  25.2237520
  62.7987100  36.0584430  25.8040630  63.8643690  36.5799650  24.8637080
  53.4210100  34.0269240  27.5858130  53.7626910  34.8711290  27.2912000
  52.4825910  34.1752980  27.7023470  49.4949060  43.1135120  18.4517210
  49.1177040  43.6022220  17.7202110  49.7522130  43.7860400  19.0823740
  65.1194310  45.3874670  27.4865000  64.4357830  46.0573780  27.4781670
  65.6588600  45.5855320  26.7209860  66.5718450  35.2154330  25.6146730
  65.6243360  35.2493310  25.7462160  66.8968440  36.0293280  25.9996090
  57.1037990  31.5151510  23.9102720  57.4112970  30.9598400  23.1938220
  56.1738690  31.6495970  23.7275710  62.6553050  47.2318800  26.2010180
  62.6680210  46.8281090  25.3332440  62.1028270  48.0066090  26.0971610
  63.9498470  43.9535020  21.2900350  63.8394800  43.0109350  21.4149770
  63.9466720  44.3150660  22.1763110  62.0538490  42.1348640  27.5292790
  62.4707280  41.9208750  26.6946250  62.7778310  42.3921430  28.1001410
  59.4918750  39.5800340  20.6462840  58.5648030  39.5137720  20.8751310
  59.6443570  40.5180470  20.5318080  59.4787830  35.8517340  17.6430000
  58.5391500  36.0131300  17.7282460  59.7971090  36.5703020  17.0965990
  66.0000590  40.5335860  27.6209030  65.1719220  40.6028950  27.1459160
  66.5951070  41.1190170  27.1524860  63.5216040  41.1420640  21.1498090
  62.9028460  40.8040190  20.5024390  63.5040490  40.4980400  21.8577280
  62.9642600  37.3205180  28.5663900  62.5513780  38.1458890  28.8203890
  62.2318550  36.7350220  28.3740260  55.0975390  40.1065080  23.4282570
  54.6932390  39.3942330  22.9328470  55.1838510  39.7618320  24.3170610
  53.8104010  36.8808290  27.2081610  54.3618600  36.9903630  26.4334860
  54.3247520  37.2545890  27.9236840  63.6542700  47.3664510  29.2544880
  63.1773260  48.1736700  29.0617490  62.9704490  46.7142840  29.4071090
  61.6980740  40.3807450  18.1570840  62.1374020  39.5429880  18.0108660
  62.4109160  41.0136850  18.2434980  59.8076120  45.3203520  22.1252080
  60.2472030  46.0627850  21.7107470  59.7463010  45.5630090  23.0491040
  65.2797880  31.6350260  16.4711880  64.9670540  31.7277090  17.3710950
  66.0410350  32.2131290  16.4209310  51.7980020  39.0010060  20.9289220
  51.6777620  39.7272150  20.3170490  51.4880910  38.2312970  20.4517130
  67.2341910  47.1276450  34.3236270  67.7101630  47.6059340  35.0025350
  67.8549070  47.0593940  33.5981770  50.6813020  43.8725390  23.1464040
  50.2741100  44.0139980  22.2917640  51.5726030  43.5885550  22.9435250
  66.6375160  44.3189300  31.4836280  66.7638220  44.0801180  30.5653460
  66.6796540  43.4873840  31.9558360  62.4746300  48.3072640  19.4815090
  62.3147440  48.0175580  20.3796920  62.3093010  47.5312770  18.9460320
  54.9534680  48.0871170  21.2586710  54.7777160  47.1706710  21.0454510
  54.0990420  48.4458460  21.4984510  62.1772430  45.8160200  18.0413090
  61.4837590  45.8137490  17.3815370  62.9195290  45.3919520  17.6107260
  61.7422360  47.4422910  22.1161580  62.1979310  46.6612290  22.4300200
  62.0814880  48.1529730  22.6602760  66.4899170  36.3721760  32.4486020
  65.8743440  36.8801430  31.9201480  66.1695590  35.4720090  32.3911960
  54.2643680  32.3445130  24.3112890  53.8211830  33.1254670  23.9797410
  54.8228670  32.6675020  25.0183830  58.5513490  35.2113650  29.9148210
  58.0892860  35.4196670  30.7268150  58.1491600  34.3973000  29.6118880
  63.5518000  36.4322600  31.0444870  62.7011590  36.1328350  31.3653940
  63.3919790  36.6764610  30.1328690  60.6467710  37.9324350  33.1443660
  60.9721120  37.0988100  32.8045890  61.4348040  38.4552870  33.2921990
  57.3802500  31.9655830  19.1918720  56.7556680  31.9615700  19.9172030
  57.2932620  31.0986790  18.7954690  56.3019580  32.8892460  26.1702490
  56.5991910  33.7955290  26.0894510  56.8505140  32.4011240  25.5562060
  54.0557900  37.4678700  22.0394140  53.8298820  37.2515870  22.9440760
  53.2750430  37.9007160  21.6940110  61.2855660  37.4742070  20.6384790
  60.6864550  38.1977870  20.4548410  61.8335270  37.4118850  19.8561240
  56.4957110  38.3664280  32.7054410  56.4000710  37.4259010  32.5554810
  57.3389090  38.5879350  32.3102480  59.8920530  36.1105610  22.6688070
  60.2850100  36.4277810  21.8556760  60.2537380  35.2317490  22.7832590
  51.6267650  34.7777950  30.8588190  51.2331040  35.6253160  31.0660970
  50.9386050  34.1404320  31.0496830  58.2012700  34.8612920  33.9284930
  57.5111020  34.6685120  34.5631020  58.9445000  35.1447560  34.4609230
  48.9284700  32.7006410  24.8918270  48.6397750  33.2709270  25.6043250
  49.6730460  32.2210860  25.2549500  49.1154930  36.6426530  16.1020990
  49.0329600  37.5857290  16.2435980  48.7637990  36.5001440  15.2233340
  60.4775670  38.7011360  26.7638850  59.7456790  39.2098170  27.1128950
  60.0800010  37.8841340  26.4627630  56.9153060  35.3765560  25.1691340
  56.9189120  34.9355510  24.3195880  57.8104180  35.6982890  25.2763160
  52.7655440  35.2592050  24.1285550  52.4255490  35.7367280  24.8852600
  52.0032760  34.8057170  23.7686650  56.9773210  36.3777640  18.1598100
  57.0986030  36.3364120  19.1083920  56.5921720  37.2401790  18.0044830
  60.9401580  34.1545040  26.1761790  60.9574320  34.6053690  27.0203640
  60.6917160  33.2550680  26.3895230  55.9894710  38.6878780  17.5581400
  55.4211610  38.2397030  16.9317310  56.6983710  39.0471560  17.0246550
  64.3672330  31.5677220  32.0148170  64.6918100  30.8366880  32.5406150
  64.4028840  31.2490860  31.1129160  57.2161030  39.4367340  26.9156750
  57.5831160  38.9625910  27.6618090  57.0266090  40.3108910  27.2565090
  50.0801520  34.1811030  23.0450220  49.7948440  33.8166700  23.8828840
  50.0180380  33.4491490  22.4313360  55.0060400  38.4775980  29.2340960
  54.7017470  39.3567960  29.4591320  55.9606860  38.5375770  29.2698400
  53.5342190  42.6836970  19.8307810  52.7604450  42.1434590  19.6706530
  54.2636820  42.1643580  19.4925570  64.2930170  41.6802330  25.6234200
  65.0129290  42.1757620  25.2330310  64.0911990  41.0020220  24.9788070
  59.7540110  33.0740290  19.7663590  58.9404720  32.5753460  19.6908900
  59.5602060  33.9138540  19.3499940  59.6748970  41.7511390  31.5103200
  59.6086280  40.8307060  31.2560790  59.0454110  41.8486830  32.2247840
  62.4688500  37.4459940  18.0625750  63.3568120  37.7577170  17.8877090
  62.4393590  36.5732190  17.6706330  53.5779590  42.3517350  23.4686620
  54.0958260  41.5485610  23.4143510  53.1263610  42.2896490  24.3103450
  58.4649090  43.6183630  18.7413920  58.8064790  44.3625860  18.2457240
  57.6361800  43.9314750  19.1038750  54.2637250  39.7762960  33.2651870
  53.9637390  39.9220140  32.3679690  55.0348490  39.2168250  33.1725260
  59.6065700  44.5731960  31.2607000  59.6210240  43.6412920  31.0425910
  58.8990800  44.6591720  31.8996770  64.7402770  38.7571780  17.5305610
  64.6566490  39.1886000  16.6802050  65.4596960  39.2170130  17.9632430
  65.8176910  41.2139300  30.6075580  65.0925100  41.8068080  30.4104970
  66.3452370  41.2062840  29.8088950  65.7690020  45.6114040  20.2587740
  65.1266180  44.9569660  20.5331460  65.3820680  46.0169130  19.4828410
  61.3476500  42.9399470  24.1059430  61.7000320  42.3427600  23.4460800
  60.4638830  42.6143700  24.2767680  57.4339780  43.6997160  21.5129840
  58.1210910  44.2466370  21.8937430  56.6472200  44.2437890  21.5479450
  49.5732180  39.3169980  17.0046920  50.4427030  39.5994780  17.2882840
  49.0822500  40.1305850  16.8895730  56.7366990  40.7043190  21.1255200
  57.1929770  41.5148440  21.3515390  56.3855200  40.3866330  21.9573690
  59.0399600  46.2149530  28.3547500  59.6841820  46.4208910  29.0320920
  59.4029040  45.4537930  27.9018350  52.6378770  31.0480840  21.5977720
  52.5093400  31.0398740  22.5462640  51.8140790  31.3863930  21.2468730
  60.3131680  44.2181880  27.0724950  60.9553910  43.5175040  27.1857120
  60.8381030  44.9980320  26.8921840  64.1587400  44.5030500  16.7964090
  63.9324980  43.7860940  17.3888730  63.7683600  44.2542940  15.9585840
  62.0869300  45.0176780  30.2761010  62.4225540  45.6043470  30.9538930
  61.1669640  44.8869490  30.5058800  49.6372700  32.8071960  31.0584420
  48.9231220  33.0068880  31.6637030  50.0567740  32.0311530  31.4299220
  63.7403650  42.4202440  18.4578250  63.4525350  42.8815130  19.2456130
  64.5355820  41.9600210  18.7262470  55.9572050  45.9128560  18.3882220
  55.9482150  46.6458250  17.7726730  55.0370410  45.6660140  18.4809180
  51.5578690  41.1343450  19.1328980  50.9506640  41.8742350  19.1424280
  52.0328040  41.2242810  18.3067180  61.1311480  35.2994270  28.8085870
  61.4992300  34.4789480  29.1365440  60.2709680  35.3596160  29.2241520
  64.4973510  34.2551210  19.6173430  63.8686670  34.3596880  18.9031660
  64.0025430  34.4747990  20.4067310  58.9431650  45.9756800  17.0507410
  59.0443630  45.7720790  16.1209390  58.0433390  45.7215080  17.2555190
  56.4657540  36.5337160  21.0331310  55.7573690  37.0023500  21.4744920
  56.7502020  35.8759170  21.6676500  58.0913470  37.9533860  29.0323840
  58.5898720  38.4279680  29.6975690  58.2336420  37.0297380  29.2393870
  60.4972970  33.2587820  22.4727100  60.3740750  33.2773950  21.5236610
  61.4457530  33.3066760  22.5925500  57.5849760  48.4943120  21.7455080
  57.8391260  48.4564510  20.8234450  56.6362240  48.3676450  21.7383330
  54.6692560  34.8422240  18.4082020  55.5183090  35.2792390  18.3422210
  54.3023830  35.1542500  19.2354080  65.2980330  34.1701820  29.8752230
  64.7953930  34.9107220  30.2146040  66.1136990  34.5585820  29.5589020
  63.5902340  39.4135000  23.3213590  62.6492480  39.4285230  23.4961280
  63.9046410  38.6270960  23.7673890  53.5683980  41.0954600  16.8817550
  54.3347250  40.9835960  17.4442980  53.6458670  40.3992570  16.2294320
  52.2630740  38.5279670  17.5650440  52.3434330  37.5807180  17.6767840
  53.1550490  38.8586550  17.6711100  65.5927920  46.5843850  24.9967850
  65.7175340  47.4075020  25.4691660  66.4593480  46.3734580  24.6492000
  49.9490930  44.7448630  20.5426490  49.0230710  44.9869770  20.5331900
  50.4147360  45.5722890  20.4211240  56.1747760  47.8505370  16.4910550
  56.9676370  48.1394200  16.0392340  55.6552110  47.4197540  15.8123030
  60.9068360  43.9701000  33.8045970  60.3006520  43.9932600  33.0641720
  60.6022470  43.2384040  34.3413220  62.3368730  47.6981290  32.4155380
  63.2890480  47.6139310  32.3655620  62.1896950  48.3623000  33.0889170
  65.2277930  47.0775500  17.9147290  64.9419440  46.6640640  17.1001470
  65.0297480  48.0063210  17.7947810  56.6925160  43.0708780  16.3552900
  56.5875800  42.4561130  17.0814280  56.5249380  42.5474670  15.5715910
  56.8439480  41.7565580  32.3342130  56.0785150  42.3250580  32.2496800
  57.0255440  41.4641790  31.4410360  59.9327890  42.1328810  16.9594890
  59.3837990  42.5798110  17.6037630  60.5547150  41.6278060  17.4832560
  63.9862830  43.4870910  32.8917150  64.7272300  43.8246670  32.3884610
  63.2235510  43.6562970  32.3386920  51.8224620  38.4924180  33.6956680
  51.8629960  38.1938050  34.6041910  52.6770120  38.8931790  33.5364200
  55.6003010  41.0919730  18.8560190  56.0219430  40.9259600  19.6991580
  55.7253850  40.2819960  18.3615330  53.7630430  37.0716280  31.6631170
  53.2326890  36.5807230  31.0354510  54.4318500  37.5000480  31.1289100
  58.1130650  40.1157340  16.1037290  58.6336310  39.4006360  15.7378440
  58.7599050  40.7543210  16.4037800  62.6608490  41.5385740  31.4272360
  63.0749510  41.6930820  32.2762780  61.7259490  41.6640960  31.5898140
  63.1330660  38.8781900  33.4311510  63.7151430  38.1234220  33.3431990
  63.3092430  39.4089340  32.6542990  54.2502730  34.0378650  31.7428460
  54.1559600  33.4199400  31.0179330  53.6700120  34.7644940  31.5158370
  57.0164170  32.5951890  28.7755850  56.5681470  32.6176150  27.9301400
  56.3829370  32.1970910  29.3726150  57.4223720  41.4906220  29.3968290
  57.8411830  42.3338950  29.2244530  56.5032350  41.6278260  29.1675070
  59.7587620  39.2222400  30.7806130  59.8783830  38.6263540  31.5200970
  60.6181620  39.2592090  30.3607430  62.0975520  39.7759590  29.3568640
  61.5710740  40.3002210  28.7533780  62.4406860  40.4086980  29.9878370
  54.4961910  37.1652960  15.8018350  54.2950970  36.3020320  16.1631690
  54.3253960  37.0786320  14.8639950  56.5256390  35.7643750  32.0381950
  57.1156080  35.4559600  32.7259770  55.7076630  35.2923500  32.1941850
  61.3449820  35.3809560  32.2714970  60.6565340  34.7191100  32.2064960
  62.0655840  34.9347830  32.7163430  61.9750220  31.9761190  18.3305230
  62.2552510  31.1329090  18.6864650  61.2015950  32.2084300  18.8443980
  53.2944710  34.2653580  15.7896230  53.5970610  34.2721010  14.8815380
  54.0339300  33.9151440  16.2863890  56.5129640  33.2088200  16.7752430
  56.1651640  32.5312190  16.1954880  56.7142410  32.7477710  17.5895820
  58.6778680  48.1968950  18.3939030  59.5729470  48.5353920  18.4157790
  58.7096310  47.4748360  17.7663310  52.3174840  43.5696000  16.6226030
  52.7549710  44.1125670  17.2783610  52.8022570  42.7442950  16.6322370
  54.1282560  44.6894040  21.7348260  53.8278100  44.5659010  22.6352170
  54.0220050  43.8302630  21.3263990  65.6573030  46.7272620  31.1005230
  65.0575020  46.7865180  30.3569150  65.7866930  45.7877600  31.2302080
  66.8974480  44.4690440  16.4374940  66.0667440  44.5367090  16.9082170
  67.0746310  45.3594560  16.1341800  66.3530940  41.2137920  18.9409140
  67.1149850  41.7834570  19.0468830  66.3685310  40.6465120  19.7117450
  67.3590910  42.0688020  23.7851070  67.7299740  41.2855340  23.3787040
  67.9992840  42.7577120  23.6068370  64.3424670  43.4524600  29.1981390
  63.5284510  43.8821760  29.4607180  64.7498870  44.0643010  28.5850440
  66.4050110  41.5072290  16.0981660  66.6798950  42.4151170  15.9700880
  66.2160850  41.4434820  17.0343650  62.8025720  34.5317140  17.3935290
  63.2210600  34.3448120  16.5531950  62.4961780  33.6796190  17.7038220
  66.3015450  39.4441280  21.0911090  65.9259050  38.6769210  20.6592380
  65.5718570  39.8263980  21.5786020  65.6915070  38.5912800  30.7250610
  65.4601160  38.3625550  29.8248560  65.9519620  39.5112350  30.6795500
  64.1303140  33.8169230  33.5030310  65.0073320  33.8252630  33.8864310
  64.1423980  33.0800070  32.8922660  49.0673360  36.9474780  19.1142130
  48.1637440  37.2104980  18.9393790  49.5513980  37.2185950  18.3342090
  65.5766410  37.6698770  24.3918330  66.1003890  37.1761420  23.7608500
  66.1625830  37.8049130  25.1365900  65.7556130  37.7538640  27.9137880
  64.8058840  37.7202180  28.0282870  65.9369140  38.6638750  27.6787650
  51.6100570  36.0040320  17.0236510  52.3192270  35.5823540  16.5383790
  50.8940510  36.0715550  16.3919860  51.2574730  32.0579650  16.0639160
  51.9802860  32.5988590  16.3820380  51.5299250  31.7843070  15.1880700
  65.0666380  36.9272120  20.3310740  65.5625500  36.6942990  21.1159620
  64.8682450  36.0883960  19.9148380  50.9466920  31.3085840  25.9661780
  51.5943110  30.7583220  25.5256940  51.3668760  31.5628990  26.7877590
  66.4953540  35.5633070  22.8648420  66.3852820  35.4089110  23.8030690
  67.2561130  35.0354010  22.6223830  64.8419260  31.5027200  29.3231420
  65.4791480  32.1161340  29.6890610  64.9894150  31.5387860  28.3780650
  67.3843810  33.3940990  16.1054560  68.3093120  33.2622170  15.8972850
  67.3619600  33.4733810  17.0591010  67.4582300  34.1651650  18.7311270
  66.6633800  34.0996770  19.2604180  67.6625580  35.1002290  18.7196620
  64.4000720  48.2043200  22.7249660  64.9959790  47.8827770  22.0484080
  64.6578870  47.7315020  23.5162930  50.6998920  31.4641510  28.7087100
  50.3513740  31.9205330  29.4745280  50.3686620  30.5698640  28.7909530
  58.2123740  32.6553390  32.2306520  58.1512630  33.2475220  32.9801930
  59.1524120  32.5479350  32.0856780  60.8498300  32.3123450  31.8698810
  61.4638710  32.6302740  31.2079890  61.3947860  31.8272040  32.4894670
  67.2673480  48.2115080  29.2760650  66.7731760  48.6083950  28.5587780
  66.6586770  47.5864290  29.6697930  51.3719560  30.9917710  31.9837870
  51.9202550  30.8105760  31.2203980  51.4374870  30.2011820  32.5194180
  61.5906340  30.8755590  28.1968100  60.7166180  31.2090700  27.9941030
  61.4817090  30.4028770  29.0219970  62.4978320  33.0826460  29.5809820
  62.1691680  32.2678220  29.2011550  63.4460620  33.0396270  29.4575510
  64.9512930  48.8538500  26.5547390  64.4915900  49.6054310  26.1805410
  64.3225390  48.1344970  26.4962190  58.1204150  48.0535230  26.5564500
  58.4081960  47.7989530  25.6797510  58.6327370  47.5012590  27.1470070
  59.3381160  31.7925430  27.1361010  58.5552950  32.2670930  27.4157770
  59.0444090  30.8880260  27.0274190  63.8902230  32.4948530  25.1810100
  64.3310320  32.4393630  24.3331700  63.6209820  33.4106540  25.2520280
  65.7540800  32.1263770  23.1918920  65.6929200  31.1824990  23.0449940
  66.5332830  32.2343860  23.7372380  50.6821570  32.0972910  19.6574730
  51.4400930  32.2101790  19.0838760  50.2198740  32.9342110  19.6118160
  57.2235380  34.2112180  22.6477040  56.4109890  33.8369070  22.3072920
  57.7277020  33.4557260  22.9498230  61.7260360  30.8754630  23.8860110
  62.3289730  31.4474840  24.3608630  60.9853350  31.4394070  23.6634010
  64.8694960  31.2776190  19.1600390  65.0645590  32.1759640  19.4267820
  64.0824830  31.0463270  19.6533340  51.6656250  46.9589360  19.5993010
  51.1403870  47.3397390  18.8954970  51.5900830  47.5840130  20.3202720
  53.0546720  32.6236960  18.1976700  53.5839480  31.8366760  18.0684650
  53.6875040  33.3028150  18.4312230  55.2484560  32.3612100  21.2522090
  54.6187300  31.6599410  21.4192220  54.7089700  33.1216230  21.0355250
  66.4221570  48.5176900  20.9206950  66.5973760  47.8314640  20.2767870
  65.7243140  49.0423950  20.5283620  55.3740120  31.6396080  33.6874580
  55.0924390  32.1429680  32.9235400  55.7559820  30.8417830  33.3216710
  54.2649220  48.9071740  18.4742260  54.9968040  48.6231020  17.9266150
  54.5242890  48.6685020  19.3641640  53.4264010  45.0236470  18.4788590
  52.7972890  45.4921570  19.0274420  53.5411840  44.1785690  18.9134780
  61.9755580  31.0549660  34.2655050  61.8621030  31.3744270  35.1606570
  62.7925320  31.4562170  33.9692330  64.7554070  48.2021190  33.7473740
  65.5479390  47.7070420  33.5399700  65.0487220  48.8811330  34.3549350
  60.8813730  39.0742130   4.6289790  60.8007780  38.1596740   4.3581500
  60.4678150  39.5709200   3.9229500  59.0131770  40.8521150   6.5099060
  58.2373870  40.3721590   6.7997630  59.6644700  40.1726800   6.3355220
  53.0297600  41.1640960   7.3874820  52.1982480  40.9089670   7.7871330
  53.6378580  41.2351730   8.1232740  63.0339200  45.2581340   5.2898190
  62.5720730  44.4868580   5.6185360  63.8464750  45.2847410   5.7950640
  53.0098860  45.1981050   7.5832840  53.3126900  44.3078790   7.4043060
  53.7542450  45.7551270   7.3555090  49.4022560  38.7248500   7.0556910
  49.9738670  37.9570700   7.0560550  49.4024100  39.0237260   6.1463520
  59.2602510  47.5439350   4.9102180  58.6413950  47.9996850   4.3396620
  60.1154290  47.6990810   4.5091880  58.4540760  43.5278340   6.5169220
  58.3849040  42.5868280   6.3558350  59.2160620  43.6179750   7.0891790
  50.6447430  34.1332860   8.8425840  50.4650270  33.2358610   9.1228600
  50.2427510  34.6804730   9.5172790  59.4845930  36.3348720   6.7438150
  59.8610750  35.4620600   6.6311820  59.3865440  36.6707420   5.8528590
  53.6150940  34.7074350   2.2055590  53.7217690  35.6078080   2.5124350
  52.7043300  34.6592320   1.9150240  63.2670050  33.8299160   3.6766490
  64.0879670  33.3395730   3.7191970  63.3004130  34.4196820   4.4298330
  51.2634100  36.6293360   7.4508180  51.9444210  36.8931730   8.0695580
  50.9482150  35.7894230   7.7846190  55.4558670  37.6760720   6.5380770
  55.9636890  38.1741690   7.1785790  55.9871910  36.8995920   6.3620130
  67.5569600  35.8465910  10.2410120  66.8521770  36.2347620   9.7225230
  67.8227520  36.5416200  10.8431050  53.7394770  32.3159280  10.8044190
  53.7413210  32.8331670   9.9990090  52.9099080  31.8389460  10.7814120
  60.1265860  42.4278590   2.3034090  59.5083130  42.8928040   1.7396810
  60.6389110  43.1206070   2.7203600  54.9897620  41.9554460   8.9817690
  54.6567000  42.5823380   9.6238760  55.1664300  42.4816340   8.2019360
  63.5031530  35.7699540   6.4494030  62.7987100  36.0584430   7.0297140
  63.8643690  36.5799650   6.0893590  53.4210100  34.0269240   8.8114640
  53.7626910  34.8711290   8.5168510  52.4825910  34.1752980   8.9279980
  54.2016720  43.9235260  10.7966870  54.8190720  44.5986340  10.5151320
  53.3409840  44.3323240  10.7054370  65.1194310  45.3874670   8.7121510
  64.4357830  46.0573780   8.7038180  65.6588600  45.5855320   7.9466370
  66.5718450  35.2154330   6.8403240  65.6243360  35.2493310   6.9718670
  66.8968440  36.0293280   7.2252600  57.1037990  31.5151510   5.1359230
  57.4112970  30.9598400   4.4194730  56.1738690  31.6495970   4.9532220
  62.6553050  47.2318800   7.4266690  62.6680210  46.8281090   6.5588950
  62.1028270  48.0066090   7.3228120  63.9498470  43.9535020   2.5156860
  63.8394800  43.0109350   2.6406280  63.9466720  44.3150660   3.4019620
  62.0538490  42.1348640   8.7549300  62.4707280  41.9208750   7.9202760
  62.7778310  42.3921430   9.3257920  59.4918750  39.5800340   1.8719350
  58.5648030  39.5137720   2.1007820  59.6443570  40.5180470   1.7574590
  66.0000590  40.5335860   8.8465540  65.1719220  40.6028950   8.3715670
  66.5951070  41.1190170   8.3781370  63.5216040  41.1420640   2.3754600
  62.9028460  40.8040190   1.7280900  63.5040490  40.4980400   3.0833790
  62.9642600  37.3205180   9.7920410  62.5513780  38.1458890  10.0460400
  62.2318550  36.7350220   9.5996770  55.0975390  40.1065080   4.6539080
  54.6932390  39.3942330   4.1584980  55.1838510  39.7618320   5.5427120
  55.5657090  43.7932640   6.8178290  55.2685380  43.1878110   6.1386070
  56.5156910  43.8309950   6.7067650  53.8104010  36.8808290   8.4338120
  54.3618600  36.9903630   7.6591370  54.3247520  37.2545890   9.1493350
  63.6542700  47.3664510  10.4801390  63.1773260  48.1736700  10.2874000
  62.9704490  46.7142840  10.6327600  54.6575520  43.5314330  13.4686090
  53.7604050  43.7554300  13.7159490  54.6828390  43.6549270  12.5197490
  53.4846740  40.4027650  12.0443460  53.3454510  41.2750450  12.4130860
  52.6028100  40.0600460  11.8991400  59.8076120  45.3203520   3.3508590
  60.2472030  46.0627850   2.9363980  59.7463010  45.5630090   4.2747550
  55.2827090  46.3449350  14.2528610  55.2542520  46.7492300  13.3857040
  55.1192060  45.4159710  14.0900210  51.7980020  39.0010060   2.1545730
  51.6777620  39.7272150   1.5427000  51.4880910  38.2312970   1.6773640
  67.2341910  47.1276450  15.5492780  67.7101630  47.6059340  16.2281860
  67.8549070  47.0593940  14.8238280  49.4365390  42.1725200   7.9614370
  49.5145810  42.3073970   7.0170090  50.0507070  41.4641090   8.1542490
  50.6813020  43.8725390   4.3720550  50.2741100  44.0139980   3.5174150
  51.5726030  43.5885550   4.1691760  66.6375160  44.3189300  12.7092790
  66.7638220  44.0801180  11.7909970  66.6796540  43.4873840  13.1814870
  60.4991900  48.0217300  11.2787600  61.0136570  47.9325310  12.0810030
  59.6560980  48.3677000  11.5715510  54.9534680  48.0871170   2.4843220
  54.7777160  47.1706710   2.2711020  54.0990420  48.4458460   2.7241020
  61.7422360  47.4422910   3.3418090  62.1979310  46.6612290   3.6556710
  62.0814880  48.1529730   3.8859270  66.4899170  36.3721760  13.6742530
  65.8743440  36.8801430  13.1457990  66.1695590  35.4720090  13.6168470
  49.4924910  43.2139370  10.5008830  49.6555950  42.7444730   9.6828200
  49.9577360  42.7062930  11.1657670  54.2643680  32.3445130   5.5369400
  53.8211830  33.1254670   5.2053920  54.8228670  32.6675020   6.2440340
  58.5513490  35.2113650  11.1404720  58.0892860  35.4196670  11.9524660
  58.1491600  34.3973000  10.8375390  63.5518000  36.4322600  12.2701380
  62.7011590  36.1328350  12.5910450  63.3919790  36.6764610  11.3585200
  60.6467710  37.9324350  14.3700170  60.9721120  37.0988100  14.0302400
  61.4348040  38.4552870  14.5178500  56.3019580  32.8892460   7.3959000
  56.5991910  33.7955290   7.3151020  56.8505140  32.4011240   6.7818570
  54.0557900  37.4678700   3.2650650  53.8298820  37.2515870   4.1697270
  53.2750430  37.9007160   2.9196620  56.4957110  38.3664280  13.9310920
  56.4000710  37.4259010  13.7811320  57.3389090  38.5879350  13.5358990
  59.8920530  36.1105610   3.8944580  60.2850100  36.4277810   3.0813270
  60.2537380  35.2317490   4.0089100  51.6267650  34.7777950  12.0844700
  51.2331040  35.6253160  12.2917480  50.9386050  34.1404320  12.2753340
  58.2012700  34.8612920  15.1541440  57.5111020  34.6685120  15.7887530
  58.9445000  35.1447560  15.6865740  48.9284700  32.7006410   6.1174780
  48.6397750  33.2709270   6.8299760  49.6730460  32.2210860   6.4806010
  60.4775670  38.7011360   7.9895360  59.7456790  39.2098170   8.3385460
  60.0800010  37.8841340   7.6884140  56.9153060  35.3765560   6.3947850
  56.9189120  34.9355510   5.5452390  57.8104180  35.6982890   6.5019670
  52.7655440  35.2592050   5.3542060  52.4255490  35.7367280   6.1109110
  52.0032760  34.8057170   4.9943160  60.9401580  34.1545040   7.4018300
  60.9574320  34.6053690   8.2460150  60.6917160  33.2550680   7.6151740
  64.3672330  31.5677220  13.2404680  64.6918100  30.8366880  13.7662660
  64.4028840  31.2490860  12.3385670  51.0663890  42.5890800  12.6604640
  50.6818680  41.9484470  13.2587600  51.3776080  43.2926920  13.2299370
  57.2161030  39.4367340   8.1413260  57.5831160  38.9625910   8.8874600
  57.0266090  40.3108910   8.4821600  50.0801520  34.1811030   4.2706730
  49.7948440  33.8166700   5.1085350  50.0180380  33.4491490   3.6569870
  55.0060400  38.4775980  10.4597470  54.7017470  39.3567960  10.6847830
  55.9606860  38.5375770  10.4954910  64.2930170  41.6802330   6.8490710
  65.0129290  42.1757620   6.4586820  64.0911990  41.0020220   6.2044580
  59.6748970  41.7511390  12.7359710  59.6086280  40.8307060  12.4817300
  59.0454110  41.8486830  13.4504350  53.5779590  42.3517350   4.6943130
  54.0958260  41.5485610   4.6400020  53.1263610  42.2896490   5.5359960
  51.0624130  39.3178720  11.6068830  50.7039070  39.9832570  12.1942170
  50.7678690  38.4862270  11.9781450  54.2637250  39.7762960  14.4908380
  53.9637390  39.9220140  13.5936200  55.0348490  39.2168250  14.3981770
  59.6065700  44.5731960  12.4863510  59.6210240  43.6412920  12.2682420
  58.8990800  44.6591720  13.1253280  65.8176910  41.2139300  11.8332090
  65.0925100  41.8068080  11.6361480  66.3452370  41.2062840  11.0345460
  61.3476500  42.9399470   5.3315940  61.7000320  42.3427600   4.6717310
  60.4638830  42.6143700   5.5024190  57.4339780  43.6997160   2.7386350
  58.1210910  44.2466370   3.1193940  56.6472200  44.2437890   2.7735960
  56.7366990  40.7043190   2.3511710  57.1929770  41.5148440   2.5771900
  56.3855200  40.3866330   3.1830200  59.0399600  46.2149530   9.5804010
  59.6841820  46.4208910  10.2577430  59.4029040  45.4537930   9.1274860
  52.6378770  31.0480840   2.8234230  52.5093400  31.0398740   3.7719150
  51.8140790  31.3863930   2.4725240  60.3131680  44.2181880   8.2981460
  60.9553910  43.5175040   8.4113630  60.8381030  44.9980320   8.1178350
  62.0869300  45.0176780  11.5017520  62.4225540  45.6043470  12.1795440
  61.1669640  44.8869490  11.7315310  49.6372700  32.8071960  12.2840930
  48.9231220  33.0068880  12.8893540  50.0567740  32.0311530  12.6555730
  49.9245290  46.7952220  13.2707460  50.0336410  45.8546960  13.1302850
  49.2725850  47.0606970  12.6221190  57.9157880  45.0668110  14.6705580
  57.5954750  44.3477350  15.2151270  57.2416240  45.7423180  14.7441640
  61.1311480  35.2994270  10.0342380  61.4992300  34.4789480  10.3621950
  60.2709680  35.3596160  10.4498030  56.4657540  36.5337160   2.2587820
  55.7573690  37.0023500   2.7001430  56.7502020  35.8759170   2.8933010
  58.0913470  37.9533860  10.2580350  58.5898720  38.4279680  10.9232200
  58.2336420  37.0297380  10.4650380  60.4972970  33.2587820   3.6983610
  60.3740750  33.2773950   2.7493120  61.4457530  33.3066760   3.8182010
  57.5849760  48.4943120   2.9711590  57.8391260  48.4564510   2.0490960
  56.6362240  48.3676450   2.9639840  65.2980330  34.1701820  11.1008740
  64.7953930  34.9107220  11.4402550  66.1136990  34.5585820  10.7845530
  63.5902340  39.4135000   4.5470100  62.6492480  39.4285230   4.7217790
  63.9046410  38.6270960   4.9930400  65.5927920  46.5843850   6.2224360
  65.7175340  47.4075020   6.6948170  66.4593480  46.3734580   5.8748510
  53.0645450  48.6775060   5.8941490  53.8007930  48.1290520   6.1650060
  53.4486370  49.5431070   5.7547480  49.9490930  44.7448630   1.7683000
  49.0230710  44.9869770   1.7588410  50.4147360  45.5722890   1.6467750
  52.0703730  47.8621130  15.0827070  52.8716460  48.1833180  15.4962470
  51.5555550  47.5016710  15.8046980  60.9068360  43.9701000  15.0302480
  60.3006520  43.9932600  14.2898230  60.6022470  43.2384040  15.5669730
  62.3368730  47.6981290  13.6411890  63.2890480  47.6139310  13.5912130
  62.1896950  48.3623000  14.3145680  49.7901540  40.3494590  14.0263120
  50.2940560  39.7701870  14.5979350  49.0508960  40.6334820  14.5639490
  56.8439480  41.7565580  13.5598640  56.0785150  42.3250580  13.4753310
  57.0255440  41.4641790  12.6666870  63.9862830  43.4870910  14.1173660
  64.7272300  43.8246670  13.6141120  63.2235510  43.6562970  13.5643430
  51.8224620  38.4924180  14.9213190  51.8629960  38.1938050  15.8298420
  52.6770120  38.8931790  14.7620710  53.7630430  37.0716280  12.8887680
  53.2326890  36.5807230  12.2611020  54.4318500  37.5000480  12.3545610
  62.6608490  41.5385740  12.6528870  63.0749510  41.6930820  13.5019290
  61.7259490  41.6640960  12.8154650  63.1330660  38.8781900  14.6568020
  63.7151430  38.1234220  14.5688500  63.3092430  39.4089340  13.8799500
  54.2502730  34.0378650  12.9684970  54.1559600  33.4199400  12.2435840
  53.6700120  34.7644940  12.7414880  57.0164170  32.5951890  10.0012360
  56.5681470  32.6176150   9.1557910  56.3829370  32.1970910  10.5982660
  57.4223720  41.4906220  10.6224800  57.8411830  42.3338950  10.4501040
  56.5032350  41.6278260  10.3931580  59.7587620  39.2222400  12.0062640
  59.8783830  38.6263540  12.7457480  60.6181620  39.2592090  11.5863940
  62.0975520  39.7759590  10.5825150  61.5710740  40.3002210   9.9790290
  62.4406860  40.4086980  11.2134880  55.2731140  47.7959230  11.7382530
  54.7352230  48.5205290  11.4191230  55.5265100  47.3189570  10.9479870
  56.5256390  35.7643750  13.2638460  57.1156080  35.4559600  13.9516280
  55.7076630  35.2923500  13.4198360  61.3449820  35.3809560  13.4971480
  60.6565340  34.7191100  13.4321470  62.0655840  34.9347830  13.9419940
  58.1293350  49.0310440  11.9969180  58.0552050  49.9345580  12.3041550
  57.2272190  48.7122340  11.9691250  49.5320640  46.3585030   5.3002800
  49.8623650  45.4906090   5.0681440  49.9611640  46.5643550   6.1307760
  54.1282560  44.6894040   2.9604770  53.8278100  44.5659010   3.8608680
  54.0220050  43.8302630   2.5520500  50.0210850  47.2255620   8.0384430
  49.5841840  47.4056420   8.8708580  50.5888530  47.9830240   7.8966150
  65.6573030  46.7272620  12.3261740  65.0575020  46.7865180  11.5825660
  65.7866930  45.7877600  12.4558590  49.8535280  39.7375850   4.3973310
  49.1984120  39.4687490   3.7533010  50.6913230  39.6280330   3.9475290
  67.3590910  42.0688020   5.0107580  67.7299740  41.2855340   4.6043550
  67.9992840  42.7577120   4.8324880  64.3424670  43.4524600  10.4237900
  63.5284510  43.8821760  10.6863690  64.7498870  44.0643010   9.8106950
  66.3015450  39.4441280   2.3167600  65.9259050  38.6769210   1.8848890
  65.5718570  39.8263980   2.8042530  50.8911210  40.1228420   8.9376650
  51.2584250  40.0355820   9.8172670  50.3222030  39.3594970   8.8383510
  65.6915070  38.5912800  11.9507120  65.4601160  38.3625550  11.0505070
  65.9519620  39.5112350  11.9052010  50.4427210  37.0337510  12.8435070
  49.5483260  37.0004270  13.1828780  50.9824760  37.2324300  13.6086320
  64.1303140  33.8169230  14.7286820  65.0073320  33.8252630  15.1120820
  64.1423980  33.0800070  14.1179170  65.5766410  37.6698770   5.6174840
  66.1003890  37.1761420   4.9865010  66.1625830  37.8049130   6.3622410
  65.7556130  37.7538640   9.1394390  64.8058840  37.7202180   9.2539380
  65.9369140  38.6638750   8.9044160  50.9466920  31.3085840   7.1918290
  51.5943110  30.7583220   6.7513450  51.3668760  31.5628990   8.0134100
  66.4953540  35.5633070   4.0904930  66.3852820  35.4089110   5.0287200
  67.2561130  35.0354010   3.8480340  64.8419260  31.5027200  10.5487930
  65.4791480  32.1161340  10.9147120  64.9894150  31.5387860   9.6037160
  64.4000720  48.2043200   3.9506170  64.9959790  47.8827770   3.2740590
  64.6578870  47.7315020   4.7419440  50.6998920  31.4641510   9.9343610
  50.3513740  31.9205330  10.7001790  50.3686620  30.5698640  10.0166040
  52.3063290  44.6361110  14.0996800  52.2632920  44.2654020  14.9811260
  52.4374300  45.5738680  14.2398620  56.0069320  46.1920700   9.7006520
  55.7660680  46.4595260   8.8137040  56.9471960  46.3626430   9.7557380
  58.2123740  32.6553390  13.4563030  58.1512630  33.2475220  14.2058440
  59.1524120  32.5479350  13.3113290  60.8498300  32.3123450  13.0955320
  61.4638710  32.6302740  12.4336400  61.3947860  31.8272040  13.7151180
  67.2673480  48.2115080  10.5017160  66.7731760  48.6083950   9.7844290
  66.6586770  47.5864290  10.8954440  51.3719560  30.9917710  13.2094380
  51.9202550  30.8105760  12.4460490  51.4374870  30.2011820  13.7450690
  52.1451320  47.5823360  11.2194580  51.5511640  47.4508060  11.9584620
  52.1375160  46.7461500  10.7536680  61.5906340  30.8755590   9.4224610
  60.7166180  31.2090700   9.2197540  61.4817090  30.4028770  10.2476480
  62.4978320  33.0826460  10.8066330  62.1691680  32.2678220  10.4268060
  63.4460620  33.0396270  10.6832020  64.9512930  48.8538500   7.7803900
  64.4915900  49.6054310   7.4061920  64.3225390  48.1344970   7.7218700
  51.7763550  44.9481740  10.1702620  51.0497610  44.3287030  10.1028570
  51.8372700  45.3422350   9.3000700  55.3808650  47.1626740   6.9552030
  55.8973670  46.5514100   6.4300290  56.0306030  47.6655520   7.4463040
  58.1204150  48.0535230   7.7821010  58.4081960  47.7989530   6.9054020
  58.6327370  47.5012590   8.3726580  59.3381160  31.7925430   8.3617520
  58.5552950  32.2670930   8.6414280  59.0444090  30.8880260   8.2530700
  63.8902230  32.4948530   6.4066610  64.3310320  32.4393630   5.5588210
  63.6209820  33.4106540   6.4776790  65.7540800  32.1263770   4.4175430
  65.6929200  31.1824990   4.2706450  66.5332830  32.2343860   4.9628890
  50.0593550  48.2656130   3.3799380  49.8915590  47.6326810   4.0781270
  49.1928060  48.4715530   3.0293570  57.2235380  34.2112180   3.8733550
  56.4109890  33.8369070   3.5329430  57.7277020  33.4557260   4.1754740
  61.7260360  30.8754630   5.1116620  62.3289730  31.4474840   5.5865140
  60.9853350  31.4394070   4.8890520  55.2484560  32.3612100   2.4778600
  54.6187300  31.6599410   2.6448730  54.7089700  33.1216230   2.2611760
  58.1876510  48.9751330  15.1489210  59.1143820  48.7395600  15.1925170
  58.1726940  49.8023330  14.6675240  66.4221570  48.5176900   2.1463460
  66.5973760  47.8314640   1.5024380  65.7243140  49.0423950   1.7540130
  55.3740120  31.6396080  14.9131090  55.0924390  32.1429680  14.1491910
  55.7559820  30.8417830  14.5473220  61.9755580  31.0549660  15.4911560
  61.8621030  31.3744270  16.3863080  62.7925320  31.4562170  15.1948840
  64.7554070  48.2021190  14.9730250  65.5479390  47.7070420  14.7656210
  65.0487220  48.8811330  15.5805860  60.8813730  20.2998640  79.7263750
  60.8007780  19.3853250  79.4555460  60.4678150  20.7965710  79.0203460
  59.0131770  22.0777660  81.6073020  58.2373870  21.5978100  81.8971590
  59.6644700  21.3983310  81.4329180  53.0297600  22.3897470  82.4848780
  52.1982480  22.1346180  82.8845290  53.6378580  22.4608240  83.2206700
  63.0339200  26.4837850  80.3872150  62.5720730  25.7125090  80.7159320
  63.8464750  26.5103920  80.8924600  53.0098860  26.4237560  82.6806800
  53.3126900  25.5335300  82.5017020  53.7542450  26.9807780  82.4529050
  51.4389550  17.3499360  76.2691170  50.5506250  17.6915330  76.1671050
  51.7230740  17.1499680  75.3772000  49.4022560  19.9505010  82.1530870
  49.9738670  19.1827210  82.1534510  49.4024100  20.2493770  81.2437480
  59.2602510  28.7695860  80.0076140  58.6413950  29.2253360  79.4370580
  60.1154290  28.9247320  79.6065840  58.4540760  24.7534850  81.6143180
  58.3849040  23.8124790  81.4532310  59.2160620  24.8436260  82.1865750
  50.6447430  15.3589370  83.9399800  50.4650270  14.4615120  84.2202560
  50.2427510  15.9061240  84.6146750  59.4845930  17.5605230  81.8412110
  59.8610750  16.6877110  81.7285780  59.3865440  17.8963930  80.9502550
  53.6150940  15.9330860  77.3029550  53.7217690  16.8334590  77.6098310
  52.7043300  15.8848830  77.0124200  63.2670050  15.0555670  78.7740450
  64.0879670  14.5652240  78.8165930  63.3004130  15.6453330  79.5272290
  51.2634100  17.8549870  82.5482140  51.9444210  18.1188240  83.1669540
  50.9482150  17.0150740  82.8820150  55.4558670  18.9017230  81.6354730
  55.9636890  19.3998200  82.2759750  55.9871910  18.1252430  81.4594090
  67.5569600  17.0722420  85.3384080  66.8521770  17.4604130  84.8199190
  67.8227520  17.7672710  85.9405010  53.7394770  13.5415790  85.9018150
  53.7413210  14.0588180  85.0964050  52.9099080  13.0645970  85.8788080
  60.1265860  23.6535100  77.4008050  59.5083130  24.1184550  76.8370770
  60.6389110  24.3462580  77.8177560  54.9897620  23.1810970  84.0791650
  54.6567000  23.8079890  84.7212720  55.1664300  23.7072850  83.2993320
  63.5031530  16.9956050  81.5467990  62.7987100  17.2840940  82.1271100
  63.8643690  17.8056160  81.1867550  53.4210100  15.2525750  83.9088600
  53.7626910  16.0967800  83.6142470  52.4825910  15.4009490  84.0253940
  54.2016720  25.1491770  85.8940830  54.8190720  25.8242850  85.6125280
  53.3409840  25.5579750  85.8028330  49.4949060  24.3391630  74.7747680
  49.1177040  24.8278730  74.0432580  49.7522130  25.0116910  75.4054210
  65.1194310  26.6131180  83.8095470  64.4357830  27.2830290  83.8012140
  65.6588600  26.8111830  83.0440330  66.5718450  16.4410840  81.9377200
  65.6243360  16.4749820  82.0692630  66.8968440  17.2549790  82.3226560
  57.1037990  12.7408020  80.2333190  57.4112970  12.1854910  79.5168690
  56.1738690  12.8752480  80.0506180  62.6553050  28.4575310  82.5240650
  62.6680210  28.0537600  81.6562910  62.1028270  29.2322600  82.4202080
  63.9498470  25.1791530  77.6130820  63.8394800  24.2365860  77.7380240
  63.9466720  25.5407170  78.4993580  62.0538490  23.3605150  83.8523260
  62.4707280  23.1465260  83.0176720  62.7778310  23.6177940  84.4231880
  59.4918750  20.8056850  76.9693310  58.5648030  20.7394230  77.1981780
  59.6443570  21.7436980  76.8548550  59.4787830  17.0773850  73.9660470
  58.5391500  17.2387810  74.0512930  59.7971090  17.7959530  73.4196460
  66.0000590  21.7592370  83.9439500  65.1719220  21.8285460  83.4689630
  66.5951070  22.3446680  83.4755330  63.5216040  22.3677150  77.4728560
  62.9028460  22.0296700  76.8254860  63.5040490  21.7236910  78.1807750
  62.9642600  18.5461690  84.8894370  62.5513780  19.3715400  85.1434360
  62.2318550  17.9606730  84.6970730  55.0975390  21.3321590  79.7513040
  54.6932390  20.6198840  79.2558940  55.1838510  20.9874830  80.6401080
  55.5657090  25.0189150  81.9152250  55.2685380  24.4134620  81.2360030
  56.5156910  25.0566460  81.8041610  53.8104010  18.1064800  83.5312080
  54.3618600  18.2160140  82.7565330  54.3247520  18.4802400  84.2467310
  63.6542700  28.5921020  85.5775350  63.1773260  29.3993210  85.3847960
  62.9704490  27.9399350  85.7301560  61.6980740  21.6063960  74.4801310
  62.1374020  20.7686390  74.3339130  62.4109160  22.2393360  74.5665450
  59.8076120  26.5460030  78.4482550  60.2472030  27.2884360  78.0337940
  59.7463010  26.7886600  79.3721510  65.2797880  12.8606770  72.7942350
  64.9670540  12.9533600  73.6941420  66.0410350  13.4387800  72.7439780
  51.7980020  20.2266570  77.2519690  51.6777620  20.9528660  76.6400960
  51.4880910  19.4569480  76.7747600  49.4365390  23.3981710  83.0588330
  49.5145810  23.5330480  82.1144050  50.0507070  22.6897600  83.2516450
  50.6813020  25.0981900  79.4694510  50.2741100  25.2396490  78.6148110
  51.5726030  24.8142060  79.2665720  62.4746300  29.5329150  75.8045560
  62.3147440  29.2432090  76.7027390  62.3093010  28.7569280  75.2690790
  54.9534680  29.3127680  77.5817180  54.7777160  28.3963220  77.3684980
  54.0990420  29.6714970  77.8214980  62.1772430  27.0416710  74.3643560
  61.4837590  27.0394000  73.7045840  62.9195290  26.6176030  73.9337730
  61.7422360  28.6679420  78.4392050  62.1979310  27.8868800  78.7530670
  62.0814880  29.3786240  78.9833230  49.4924910  24.4395880  85.5982790
  49.6555950  23.9701240  84.7802160  49.9577360  23.9319440  86.2631630
  54.2643680  13.5701640  80.6343360  53.8211830  14.3511180  80.3027880
  54.8228670  13.8931530  81.3414300  57.3802500  13.1912340  75.5149190
  56.7556680  13.1872210  76.2402500  57.2932620  12.3243300  75.1185160
  56.3019580  14.1148970  82.4932960  56.5991910  15.0211800  82.4124980
  56.8505140  13.6267750  81.8792530  54.0557900  18.6935210  78.3624610
  53.8298820  18.4772380  79.2671230  53.2750430  19.1263670  78.0170580
  61.2855660  18.6998580  76.9615260  60.6864550  19.4234380  76.7778880
  61.8335270  18.6375360  76.1791710  59.8920530  17.3362120  78.9918540
  60.2850100  17.6534320  78.1787230  60.2537380  16.4574000  79.1063060
  48.9284700  13.9262920  81.2148740  48.6397750  14.4965780  81.9273720
  49.6730460  13.4467370  81.5779970  49.1154930  17.8683040  72.4251460
  49.0329600  18.8113800  72.5666450  48.7637990  17.7257950  71.5463810
  60.4775670  19.9267870  83.0869320  59.7456790  20.4354680  83.4359420
  60.0800010  19.1097850  82.7858100  56.9153060  16.6022070  81.4921810
  56.9189120  16.1612020  80.6426350  57.8104180  16.9239400  81.5993630
  52.7655440  16.4848560  80.4516020  52.4255490  16.9623790  81.2083070
  52.0032760  16.0313680  80.0917120  56.9773210  17.6034150  74.4828570
  57.0986030  17.5620630  75.4314390  56.5921720  18.4658300  74.3275300
  60.9401580  15.3801550  82.4992260  60.9574320  15.8310200  83.3434110
  60.6917160  14.4807190  82.7125700  55.9894710  19.9135290  73.8811870
  55.4211610  19.4653540  73.2547780  56.6983710  20.2728070  73.3477020
  57.2161030  20.6623850  83.2387220  57.5831160  20.1882420  83.9848560
  57.0266090  21.5365420  83.5795560  50.0801520  15.4067540  79.3680690
  49.7948440  15.0423210  80.2059310  50.0180380  14.6748000  78.7543830
  55.0060400  19.7032490  85.5571430  54.7017470  20.5824470  85.7821790
  55.9606860  19.7632280  85.5928870  53.5342190  23.9093480  76.1538280
  52.7604450  23.3691100  75.9937000  54.2636820  23.3900090  75.8156040
  64.2930170  22.9058840  81.9464670  65.0129290  23.4014130  81.5560780
  64.0911990  22.2276730  81.3018540  59.7540110  14.2996800  76.0894060
  58.9404720  13.8009970  76.0139370  59.5602060  15.1395050  75.6730410
  62.4688500  18.6716450  74.3856220  63.3568120  18.9833680  74.2107560
  62.4393590  17.7988700  73.9936800  53.5779590  23.5773860  79.7917090
  54.0958260  22.7742120  79.7373980  53.1263610  23.5153000  80.6333920
  58.4649090  24.8440140  75.0644390  58.8064790  25.5882370  74.5687710
  57.6361800  25.1571260  75.4269220  64.7402770  19.9828290  73.8536080
  64.6566490  20.4142510  73.0032520  65.4596960  20.4426640  74.2862900
  65.7690020  26.8370550  76.5818210  65.1266180  26.1826170  76.8561930
  65.3820680  27.2425640  75.8058880  61.3476500  24.1655980  80.4289900
  61.7000320  23.5684110  79.7691270  60.4638830  23.8400210  80.5998150
  57.4339780  24.9253670  77.8360310  58.1210910  25.4722880  78.2167900
  56.6472200  25.4694400  77.8709920  49.5732180  20.5426490  73.3277390
  50.4427030  20.8251290  73.6113310  49.0822500  21.3562360  73.2126200
  56.7366990  21.9299700  77.4485670  57.1929770  22.7404950  77.6745860
  56.3855200  21.6122840  78.2804160  59.0399600  27.4406040  84.6777970
  59.6841820  27.6465420  85.3551390  59.4029040  26.6794440  84.2248820
  52.6378770  12.2737350  77.9208190  52.5093400  12.2655250  78.8693110
  51.8140790  12.6120440  77.5699200  60.3131680  25.4438390  83.3955420
  60.9553910  24.7431550  83.5087590  60.8381030  26.2236830  83.2152310
  64.1587400  25.7287010  73.1194560  63.9324980  25.0117450  73.7119200
  63.7683600  25.4799450  72.2816310  49.9403430  29.7553870  73.8939020
  50.3001070  30.3543210  73.2396290  49.7995770  30.3013760  74.6674050
  63.7403650  23.6458950  74.7808720  63.4525350  24.1071640  75.5686600
  64.5355820  23.1856720  75.0492940  55.9572050  27.1385070  74.7112690
  55.9482150  27.8714760  74.0957200  55.0370410  26.8916650  74.8039650
  51.5578690  22.3599960  75.4559450  50.9506640  23.0998860  75.4654750
  52.0328040  22.4499320  74.6297650  61.1311480  16.5250780  85.1316340
  61.4992300  15.7045990  85.4595910  60.2709680  16.5852670  85.5471990
  64.4973510  15.4807720  75.9403900  63.8686670  15.5853390  75.2262130
  64.0025430  15.7004500  76.7297780  58.9431650  27.2013310  73.3737880
  59.0443630  26.9977300  72.4439860  58.0433390  26.9471590  73.5785660
  56.4657540  17.7593670  77.3561780  55.7573690  18.2280010  77.7975390
  56.7502020  17.1015680  77.9906970  58.0913470  19.1790370  85.3554310
  58.5898720  19.6536190  86.0206160  58.2336420  18.2553890  85.5624340
  60.4972970  14.4844330  78.7957570  60.3740750  14.5030460  77.8467080
  61.4457530  14.5323270  78.9155970  57.5849760  29.7199630  78.0685550
  57.8391260  29.6821020  77.1464920  56.6362240  29.5932960  78.0613800
  54.6692560  16.0678750  74.7312490  55.5183090  16.5048900  74.6652680
  54.3023830  16.3799010  75.5584550  63.5902340  20.6391510  79.6444060
  62.6492480  20.6541740  79.8191750  63.9046410  19.8527470  80.0904360
  53.5683980  22.3211110  73.2048020  54.3347250  22.2092470  73.7673450
  53.6458670  21.6249080  72.5524790  52.2630740  19.7536180  73.8880910
  52.3434330  18.8063690  73.9998310  53.1550490  20.0843060  73.9941570
  65.5927920  27.8100360  81.3198320  65.7175340  28.6331530  81.7922130
  66.4593480  27.5991090  80.9722470  53.0645450  29.9031570  80.9915450
  53.8007930  29.3547030  81.2624020  53.4486370  30.7687580  80.8521440
  49.9490930  25.9705140  76.8656960  49.0230710  26.2126280  76.8562370
  50.4147360  26.7979400  76.7441710  56.1747760  29.0761880  72.8141020
  56.9676370  29.3650710  72.3622810  55.6552110  28.6454050  72.1353500
  65.2277930  28.3032010  74.2377760  64.9419440  27.8897150  73.4231940
  65.0297480  29.2319720  74.1178280  56.6925160  24.2965290  72.6783370
  56.5875800  23.6817640  73.4044750  56.5249380  23.7731180  71.8946380
  59.9327890  23.3585320  73.2825360  59.3837990  23.8054620  73.9268100
  60.5547150  22.8534570  73.8063030  55.6003010  22.3176240  75.1790660
  56.0219430  22.1516110  76.0222050  55.7253850  21.5076470  74.6845800
  58.1130650  21.3413850  72.4267760  58.6336310  20.6262870  72.0608910
  58.7599050  21.9799720  72.7268270  57.0164170  13.8208400  85.0986320
  56.5681470  13.8432660  84.2531870  56.3829370  13.4227420  85.6956620
  57.4223720  22.7162730  85.7198760  57.8411830  23.5595460  85.5475000
  56.5032350  22.8534770  85.4905540  54.4961910  18.3909470  72.1248820
  54.2950970  17.5276830  72.4862160  54.3253960  18.3042830  71.1870420
  61.9750220  13.2017700  74.6535700  62.2552510  12.3585600  75.0095120
  61.2015950  13.4340810  75.1674450  53.2944710  15.4910090  72.1126700
  53.5970610  15.4977520  71.2045850  54.0339300  15.1407950  72.6094360
  56.5129640  14.4344710  73.0982900  56.1651640  13.7568700  72.5185350
  56.7142410  13.9734220  73.9126290  58.6778680  29.4225460  74.7169500
  59.5729470  29.7610430  74.7388260  58.7096310  28.7004870  74.0893780
  52.3174840  24.7952510  72.9456500  52.7549710  25.3382180  73.6014080
  52.8022570  23.9699460  72.9552840  49.5320640  27.5841540  80.3976760
  49.8623650  26.7162600  80.1655400  49.9611640  27.7900060  81.2281720
  54.1282560  25.9150550  78.0578730  53.8278100  25.7915520  78.9582640
  54.0220050  25.0559140  77.6494460  50.0210850  28.4512130  83.1358390
  49.5841840  28.6312930  83.9682540  50.5888530  29.2086750  82.9940110
  66.8974480  25.6946950  72.7605410  66.0667440  25.7623600  73.2312640
  67.0746310  26.5851070  72.4572270  66.3530940  22.4394430  75.2639610
  67.1149850  23.0091080  75.3699300  66.3685310  21.8721630  76.0347920
  49.8535280  20.9632360  79.4947270  49.1984120  20.6944000  78.8506970
  50.6913230  20.8536840  79.0449250  67.3590910  23.2944530  80.1081540
  67.7299740  22.5111850  79.7017510  67.9992840  23.9833630  79.9298840
  64.3424670  24.6781110  85.5211860  63.5284510  25.1078270  85.7837650
  64.7498870  25.2899520  84.9080910  66.4050110  22.7328800  72.4212130
  66.6798950  23.6407680  72.2931350  66.2160850  22.6691330  73.3574120
  62.8025720  15.7573650  73.7165760  63.2210600  15.5704630  72.8762420
  62.4961780  14.9052700  74.0268690  66.3015450  20.6697790  77.4141560
  65.9259050  19.9025720  76.9822850  65.5718570  21.0520490  77.9016490
  50.8911210  21.3484930  84.0350610  51.2584250  21.2612330  84.9146630
  50.3222030  20.5851480  83.9357470  49.0673360  18.1731290  75.4372600
  48.1637440  18.4361490  75.2624260  49.5513980  18.4442460  74.6572560
  65.5766410  18.8955280  80.7148800  66.1003890  18.4017930  80.0838970
  66.1625830  19.0305640  81.4596370  65.7556130  18.9795150  84.2368350
  64.8058840  18.9458690  84.3513340  65.9369140  19.8895260  84.0018120
  51.6100570  17.2296830  73.3466980  52.3192270  16.8080050  72.8614260
  50.8940510  17.2972060  72.7150330  51.2574730  13.2836160  72.3869630
  51.9802860  13.8245100  72.7050850  51.5299250  13.0099580  71.5111170
  65.0666380  18.1528630  76.6541210  65.5625500  17.9199500  77.4390090
  64.8682450  17.3140470  76.2378850  50.9466920  12.5342350  82.2892250
  51.5943110  11.9839730  81.8487410  51.3668760  12.7885500  83.1108060
  66.4953540  16.7889580  79.1878890  66.3852820  16.6345620  80.1261160
  67.2561130  16.2610520  78.9454300  64.8419260  12.7283710  85.6461890
  65.4791480  13.3417850  86.0121080  64.9894150  12.7644370  84.7011120
  67.3843810  14.6197500  72.4285030  68.3093120  14.4878680  72.2203320
  67.3619600  14.6990320  73.3821480  67.4582300  15.3908160  75.0541740
  66.6633800  15.3253280  75.5834650  67.6625580  16.3258800  75.0427090
  64.4000720  29.4299710  79.0480130  64.9959790  29.1084280  78.3714550
  64.6578870  28.9571530  79.8393400  50.6998920  12.6898020  85.0317570
  50.3513740  13.1461840  85.7975750  50.3686620  11.7955150  85.1140000
  56.0069320  27.4177210  84.7980480  55.7660680  27.6851770  83.9111000
  56.9471960  27.5882940  84.8531340  67.2673480  29.4371590  85.5991120
  66.7731760  29.8340460  84.8818250  66.6586770  28.8120800  85.9928400
  61.5906340  12.1012100  84.5198570  60.7166180  12.4347210  84.3171500
  61.4817090  11.6285280  85.3450440  62.4978320  14.3082970  85.9040290
  62.1691680  13.4934730  85.5242020  63.4460620  14.2652780  85.7805980
  64.9512930  30.0795010  82.8777860  64.4915900  30.8310820  82.5035880
  64.3225390  29.3601480  82.8192660  51.7763550  26.1738250  85.2676580
  51.0497610  25.5543540  85.2002530  51.8372700  26.5678860  84.3974660
  55.3808650  28.3883250  82.0525990  55.8973670  27.7770610  81.5274250
  56.0306030  28.8912030  82.5437000  58.1204150  29.2791740  82.8794970
  58.4081960  29.0246040  82.0027980  58.6327370  28.7269100  83.4700540
  59.3381160  13.0181940  83.4591480  58.5552950  13.4927440  83.7388240
  59.0444090  12.1136770  83.3504660  63.8902230  13.7205040  81.5040570
  64.3310320  13.6650140  80.6562170  63.6209820  14.6363050  81.5750750
  65.7540800  13.3520280  79.5149390  65.6929200  12.4081500  79.3680410
  66.5332830  13.4600370  80.0602850  50.0593550  29.4912640  78.4773340
  49.8915590  28.8583320  79.1755230  49.1928060  29.6972040  78.1267530
  50.6821570  13.3229420  75.9805200  51.4400930  13.4358300  75.4069230
  50.2198740  14.1598620  75.9348630  57.2235380  15.4368690  78.9707510
  56.4109890  15.0625580  78.6303390  57.7277020  14.6813770  79.2728700
  61.7260360  12.1011140  80.2090580  62.3289730  12.6731350  80.6839100
  60.9853350  12.6650580  79.9864480  64.8694960  12.5032700  75.4830860
  65.0645590  13.4016150  75.7498290  64.0824830  12.2719780  75.9763810
  51.6656250  28.1845870  75.9223480  51.1403870  28.5653900  75.2185440
  51.5900830  28.8096640  76.6433190  53.0546720  13.8493470  74.5207170
  53.5839480  13.0623270  74.3915120  53.6875040  14.5284660  74.7542700
  55.2484560  13.5868610  77.5752560  54.6187300  12.8855920  77.7422690
  54.7089700  14.3472740  77.3585720  66.4221570  29.7433410  77.2437420
  66.5973760  29.0571150  76.5998340  65.7243140  30.2680460  76.8514090
  54.2649220  30.1328250  74.7972730  54.9968040  29.8487530  74.2496620
  54.5242890  29.8941530  75.6872110  53.4264010  26.2492980  74.8019060
  52.7972890  26.7178080  75.3504890  53.5411840  25.4042200  75.2365250
  60.8813730  20.2998640  60.9520260  60.8007780  19.3853250  60.6811970
  60.4678150  20.7965710  60.2459970  59.0131770  22.0777660  62.8329530
  58.2373870  21.5978100  63.1228100  59.6644700  21.3983310  62.6585690
  53.0297600  22.3897470  63.7105290  52.1982480  22.1346180  64.1101800
  53.6378580  22.4608240  64.4463210  63.0339200  26.4837850  61.6128660
  62.5720730  25.7125090  61.9415830  63.8464750  26.5103920  62.1181110
  53.0098860  26.4237560  63.9063310  53.3126900  25.5335300  63.7273530
  53.7542450  26.9807780  63.6785560  51.4389550  17.3499360  57.4947680
  50.5506250  17.6915330  57.3927560  51.7230740  17.1499680  56.6028510
  49.4022560  19.9505010  63.3787380  49.9738670  19.1827210  63.3791020
  49.4024100  20.2493770  62.4693990  59.2602510  28.7695860  61.2332650
  58.6413950  29.2253360  60.6627090  60.1154290  28.9247320  60.8322350
  58.4540760  24.7534850  62.8399690  58.3849040  23.8124790  62.6788820
  59.2160620  24.8436260  63.4122260  50.6447430  15.3589370  65.1656310
  50.4650270  14.4615120  65.4459070  50.2427510  15.9061240  65.8403260
  59.4845930  17.5605230  63.0668620  59.8610750  16.6877110  62.9542290
  59.3865440  17.8963930  62.1759060  53.6150940  15.9330860  58.5286060
  53.7217690  16.8334590  58.8354820  52.7043300  15.8848830  58.2380710
  63.2670050  15.0555670  59.9996960  64.0879670  14.5652240  60.0422440
  63.3004130  15.6453330  60.7528800  51.2634100  17.8549870  63.7738650
  51.9444210  18.1188240  64.3926050  50.9482150  17.0150740  64.1076660
  55.4558670  18.9017230  62.8611240  55.9636890  19.3998200  63.5016260
  55.9871910  18.1252430  62.6850600  67.5569600  17.0722420  66.5640590
  66.8521770  17.4604130  66.0455700  67.8227520  17.7672710  67.1661520
  53.7394770  13.5415790  67.1274660  53.7413210  14.0588180  66.3220560
  52.9099080  13.0645970  67.1044590  60.1265860  23.6535100  58.6264560
  59.5083130  24.1184550  58.0627280  60.6389110  24.3462580  59.0434070
  54.9897620  23.1810970  65.3048160  54.6567000  23.8079890  65.9469230
  55.1664300  23.7072850  64.5249830  63.5031530  16.9956050  62.7724500
  62.7987100  17.2840940  63.3527610  63.8643690  17.8056160  62.4124060
  53.4210100  15.2525750  65.1345110  53.7626910  16.0967800  64.8398980
  52.4825910  15.4009490  65.2510450  54.2016720  25.1491770  67.1197340
  54.8190720  25.8242850  66.8381790  53.3409840  25.5579750  67.0284840
  65.1194310  26.6131180  65.0351980  64.4357830  27.2830290  65.0268650
  65.6588600  26.8111830  64.2696840  66.5718450  16.4410840  63.1633710
  65.6243360  16.4749820  63.2949140  66.8968440  17.2549790  63.5483070
  57.1037990  12.7408020  61.4589700  57.4112970  12.1854910  60.7425200
  56.1738690  12.8752480  61.2762690  62.6553050  28.4575310  63.7497160
  62.6680210  28.0537600  62.8819420  62.1028270  29.2322600  63.6458590
  63.9498470  25.1791530  58.8387330  63.8394800  24.2365860  58.9636750
  63.9466720  25.5407170  59.7250090  62.0538490  23.3605150  65.0779770
  62.4707280  23.1465260  64.2433230  62.7778310  23.6177940  65.6488390
  59.4918750  20.8056850  58.1949820  58.5648030  20.7394230  58.4238290
  59.6443570  21.7436980  58.0805060  59.4787830  17.0773850  55.1916980
  58.5391500  17.2387810  55.2769440  59.7971090  17.7959530  54.6452970
  66.0000590  21.7592370  65.1696010  65.1719220  21.8285460  64.6946140
  66.5951070  22.3446680  64.7011840  63.5216040  22.3677150  58.6985070
  62.9028460  22.0296700  58.0511370  63.5040490  21.7236910  59.4064260
  62.9642600  18.5461690  66.1150880  62.5513780  19.3715400  66.3690870
  62.2318550  17.9606730  65.9227240  55.0975390  21.3321590  60.9769550
  54.6932390  20.6198840  60.4815450  55.1838510  20.9874830  61.8657590
  55.5657090  25.0189150  63.1408760  55.2685380  24.4134620  62.4616540
  56.5156910  25.0566460  63.0298120  53.8104010  18.1064800  64.7568590
  54.3618600  18.2160140  63.9821840  54.3247520  18.4802400  65.4723820
  63.6542700  28.5921020  66.8031860  63.1773260  29.3993210  66.6104470
  62.9704490  27.9399350  66.9558070  54.6575520  24.7570840  69.7916560
  53.7604050  24.9810810  70.0389960  54.6828390  24.8805780  68.8427960
  61.6980740  21.6063960  55.7057820  62.1374020  20.7686390  55.5595640
  62.4109160  22.2393360  55.7921960  53.4846740  21.6284160  68.3673930
  53.3454510  22.5006960  68.7361330  52.6028100  21.2856970  68.2221870
  59.8076120  26.5460030  59.6739060  60.2472030  27.2884360  59.2594450
  59.7463010  26.7886600  60.5978020  55.2827090  27.5705860  70.5759080
  55.2542520  27.9748810  69.7087510  55.1192060  26.6416220  70.4130680
  65.2797880  12.8606770  54.0198860  64.9670540  12.9533600  54.9197930
  66.0410350  13.4387800  53.9696290  51.7980020  20.2266570  58.4776200
  51.6777620  20.9528660  57.8657470  51.4880910  19.4569480  58.0004110
  67.2341910  28.3532960  71.8723250  67.7101630  28.8315850  72.5512330
  67.8549070  28.2850450  71.1468750  49.4365390  23.3981710  64.2844840
  49.5145810  23.5330480  63.3400560  50.0507070  22.6897600  64.4772960
  66.6375160  25.5445810  69.0323260  66.7638220  25.3057690  68.1140440
  66.6796540  24.7130350  69.5045340  60.4991900  29.2473810  67.6018070
  61.0136570  29.1581820  68.4040500  59.6560980  29.5933510  67.8945980
  62.4746300  29.5329150  57.0302070  62.3147440  29.2432090  57.9283900
  62.3093010  28.7569280  56.4947300  54.9534680  29.3127680  58.8073690
  54.7777160  28.3963220  58.5941490  54.0990420  29.6714970  59.0471490
  62.1772430  27.0416710  55.5900070  61.4837590  27.0394000  54.9302350
  62.9195290  26.6176030  55.1594240  61.7422360  28.6679420  59.6648560
  62.1979310  27.8868800  59.9787180  62.0814880  29.3786240  60.2089740
  66.4899170  17.5978270  69.9973000  65.8743440  18.1057940  69.4688460
  66.1695590  16.6976600  69.9398940  49.4924910  24.4395880  66.8239300
  49.6555950  23.9701240  66.0058670  49.9577360  23.9319440  67.4888140
  54.2643680  13.5701640  61.8599870  53.8211830  14.3511180  61.5284390
  54.8228670  13.8931530  62.5670810  58.5513490  16.4370160  67.4635190
  58.0892860  16.6453180  68.2755130  58.1491600  15.6229510  67.1605860
  63.5518000  17.6579110  68.5931850  62.7011590  17.3584860  68.9140920
  63.3919790  17.9021120  67.6815670  60.6467710  19.1580860  70.6930640
  60.9721120  18.3244610  70.3532870  61.4348040  19.6809380  70.8408970
  57.3802500  13.1912340  56.7405700  56.7556680  13.1872210  57.4659010
  57.2932620  12.3243300  56.3441670  56.3019580  14.1148970  63.7189470
  56.5991910  15.0211800  63.6381490  56.8505140  13.6267750  63.1049040
  54.0557900  18.6935210  59.5881120  53.8298820  18.4772380  60.4927740
  53.2750430  19.1263670  59.2427090  61.2855660  18.6998580  58.1871770
  60.6864550  19.4234380  58.0035390  61.8335270  18.6375360  57.4048220
  56.4957110  19.5920790  70.2541390  56.4000710  18.6515520  70.1041790
  57.3389090  19.8135860  69.8589460  59.8920530  17.3362120  60.2175050
  60.2850100  17.6534320  59.4043740  60.2537380  16.4574000  60.3319570
  51.6267650  16.0034460  68.4075170  51.2331040  16.8509670  68.6147950
  50.9386050  15.3660830  68.5983810  58.2012700  16.0869430  71.4771910
  57.5111020  15.8941630  72.1118000  58.9445000  16.3704070  72.0096210
  48.9284700  13.9262920  62.4405250  48.6397750  14.4965780  63.1530230
  49.6730460  13.4467370  62.8036480  60.4775670  19.9267870  64.3125830
  59.7456790  20.4354680  64.6615930  60.0800010  19.1097850  64.0114610
  56.9153060  16.6022070  62.7178320  56.9189120  16.1612020  61.8682860
  57.8104180  16.9239400  62.8250140  52.7655440  16.4848560  61.6772530
  52.4255490  16.9623790  62.4339580  52.0032760  16.0313680  61.3173630
  56.9773210  17.6034150  55.7085080  57.0986030  17.5620630  56.6570900
  56.5921720  18.4658300  55.5531810  60.9401580  15.3801550  63.7248770
  60.9574320  15.8310200  64.5690620  60.6917160  14.4807190  63.9382210
  55.9894710  19.9135290  55.1068380  55.4211610  19.4653540  54.4804290
  56.6983710  20.2728070  54.5733530  64.3672330  12.7933730  69.5635150
  64.6918100  12.0623390  70.0893130  64.4028840  12.4747370  68.6616140
  51.0663890  23.8147310  68.9835110  50.6818680  23.1740980  69.5818070
  51.3776080  24.5183430  69.5529840  57.2161030  20.6623850  64.4643730
  57.5831160  20.1882420  65.2105070  57.0266090  21.5365420  64.8052070
  50.0801520  15.4067540  60.5937200  49.7948440  15.0423210  61.4315820
  50.0180380  14.6748000  59.9800340  55.0060400  19.7032490  66.7827940
  54.7017470  20.5824470  67.0078300  55.9606860  19.7632280  66.8185380
  53.5342190  23.9093480  57.3794790  52.7604450  23.3691100  57.2193510
  54.2636820  23.3900090  57.0412550  64.2930170  22.9058840  63.1721180
  65.0129290  23.4014130  62.7817290  64.0911990  22.2276730  62.5275050
  59.7540110  14.2996800  57.3150570  58.9404720  13.8009970  57.2395880
  59.5602060  15.1395050  56.8986920  59.6748970  22.9767900  69.0590180
  59.6086280  22.0563570  68.8047770  59.0454110  23.0743340  69.7734820
  62.4688500  18.6716450  55.6112730  63.3568120  18.9833680  55.4364070
  62.4393590  17.7988700  55.2193310  53.5779590  23.5773860  61.0173600
  54.0958260  22.7742120  60.9630490  53.1263610  23.5153000  61.8590430
  58.4649090  24.8440140  56.2900900  58.8064790  25.5882370  55.7944220
  57.6361800  25.1571260  56.6525730  51.0624130  20.5435230  67.9299300
  50.7039070  21.2089080  68.5172640  50.7678690  19.7118780  68.3011920
  54.2637250  21.0019470  70.8138850  53.9637390  21.1476650  69.9166670
  55.0348490  20.4424760  70.7212240  59.6065700  25.7988470  68.8093980
  59.6210240  24.8669430  68.5912890  58.8990800  25.8848230  69.4483750
  64.7402770  19.9828290  55.0792590  64.6566490  20.4142510  54.2289030
  65.4596960  20.4426640  55.5119410  65.8176910  22.4395810  68.1562560
  65.0925100  23.0324590  67.9591950  66.3452370  22.4319350  67.3575930
  65.7690020  26.8370550  57.8074720  65.1266180  26.1826170  58.0818440
  65.3820680  27.2425640  57.0315390  61.3476500  24.1655980  61.6546410
  61.7000320  23.5684110  60.9947780  60.4638830  23.8400210  61.8254660
  57.4339780  24.9253670  59.0616820  58.1210910  25.4722880  59.4424410
  56.6472200  25.4694400  59.0966430  56.7366990  21.9299700  58.6742180
  57.1929770  22.7404950  58.9002370  56.3855200  21.6122840  59.5060670
  59.0399600  27.4406040  65.9034480  59.6841820  27.6465420  66.5807900
  59.4029040  26.6794440  65.4505330  52.6378770  12.2737350  59.1464700
  52.5093400  12.2655250  60.0949620  51.8140790  12.6120440  58.7955710
  60.3131680  25.4438390  64.6211930  60.9553910  24.7431550  64.7344100
  60.8381030  26.2236830  64.4408820  64.1587400  25.7287010  54.3451070
  63.9324980  25.0117450  54.9375710  63.7683600  25.4799450  53.5072820
  62.0869300  26.2433290  67.8247990  62.4225540  26.8299980  68.5025910
  61.1669640  26.1126000  68.0545780  49.6372700  14.0328470  68.6071400
  48.9231220  14.2325390  69.2124010  50.0567740  13.2568040  68.9786200
  63.7403650  23.6458950  56.0065230  63.4525350  24.1071640  56.7943110
  64.5355820  23.1856720  56.2749450  49.9245290  28.0208730  69.5937930
  50.0336410  27.0803470  69.4533320  49.2725850  28.2863480  68.9451660
  57.9157880  26.2924620  70.9936050  57.5954750  25.5733860  71.5381740
  57.2416240  26.9679690  71.0672110  55.9572050  27.1385070  55.9369200
  55.9482150  27.8714760  55.3213710  55.0370410  26.8916650  56.0296160
  51.5578690  22.3599960  56.6815960  50.9506640  23.0998860  56.6911260
  52.0328040  22.4499320  55.8554160  61.1311480  16.5250780  66.3572850
  61.4992300  15.7045990  66.6852420  60.2709680  16.5852670  66.7728500
  64.4973510  15.4807720  57.1660410  63.8686670  15.5853390  56.4518640
  64.0025430  15.7004500  57.9554290  58.9431650  27.2013310  54.5994390
  59.0443630  26.9977300  53.6696370  58.0433390  26.9471590  54.8042170
  56.4657540  17.7593670  58.5818290  55.7573690  18.2280010  59.0231900
  56.7502020  17.1015680  59.2163480  58.0913470  19.1790370  66.5810820
  58.5898720  19.6536190  67.2462670  58.2336420  18.2553890  66.7880850
  60.4972970  14.4844330  60.0214080  60.3740750  14.5030460  59.0723590
  61.4457530  14.5323270  60.1412480  57.5849760  29.7199630  59.2942060
  57.8391260  29.6821020  58.3721430  56.6362240  29.5932960  59.2870310
  54.6692560  16.0678750  55.9569000  55.5183090  16.5048900  55.8909190
  54.3023830  16.3799010  56.7841060  65.2980330  15.3958330  67.4239210
  64.7953930  16.1363730  67.7633020  66.1136990  15.7842330  67.1076000
  63.5902340  20.6391510  60.8700570  62.6492480  20.6541740  61.0448260
  63.9046410  19.8527470  61.3160870  53.5683980  22.3211110  54.4304530
  54.3347250  22.2092470  54.9929960  53.6458670  21.6249080  53.7781300
  52.2630740  19.7536180  55.1137420  52.3434330  18.8063690  55.2254820
  53.1550490  20.0843060  55.2198080  65.5927920  27.8100360  62.5454830
  65.7175340  28.6331530  63.0178640  66.4593480  27.5991090  62.1978980
  53.0645450  29.9031570  62.2171960  53.8007930  29.3547030  62.4880530
  53.4486370  30.7687580  62.0777950  52.0703730  29.0877640  71.4057540
  52.8716460  29.4089690  71.8192940  51.5555550  28.7273220  72.1277450
  56.1747760  29.0761880  54.0397530  56.9676370  29.3650710  53.5879320
  55.6552110  28.6454050  53.3610010  60.9068360  25.1957510  71.3532950
  60.3006520  25.2189110  70.6128700  60.6022470  24.4640550  71.8900200
  62.3368730  28.9237800  69.9642360  63.2890480  28.8395820  69.9142600
  62.1896950  29.5879510  70.6376150  65.2277930  28.3032010  55.4634270
  64.9419440  27.8897150  54.6488450  65.0297480  29.2319720  55.3434790
  49.7901540  21.5751100  70.3493590  50.2940560  20.9958380  70.9209820
  49.0508960  21.8591330  70.8869960  56.6925160  24.2965290  53.9039880
  56.5875800  23.6817640  54.6301260  56.5249380  23.7731180  53.1202890
  56.8439480  22.9822090  69.8829110  56.0785150  23.5507090  69.7983780
  57.0255440  22.6898300  68.9897340  59.9327890  23.3585320  54.5081870
  59.3837990  23.8054620  55.1524610  60.5547150  22.8534570  55.0319540
  63.9862830  24.7127420  70.4404130  64.7272300  25.0503180  69.9371590
  63.2235510  24.8819480  69.8873900  51.8224620  19.7180690  71.2443660
  51.8629960  19.4194560  72.1528890  52.6770120  20.1188300  71.0851180
  55.6003010  22.3176240  56.4047170  56.0219430  22.1516110  57.2478560
  55.7253850  21.5076470  55.9102310  53.7630430  18.2972790  69.2118150
  53.2326890  17.8063740  68.5841490  54.4318500  18.7256990  68.6776080
  58.1130650  21.3413850  53.6524270  58.6336310  20.6262870  53.2865420
  58.7599050  21.9799720  53.9524780  62.6608490  22.7642250  68.9759340
  63.0749510  22.9187330  69.8249760  61.7259490  22.8897470  69.1385120
  63.1330660  20.1038410  70.9798490  63.7151430  19.3490730  70.8918970
  63.3092430  20.6345850  70.2029970  54.2502730  15.2635160  69.2915440
  54.1559600  14.6455910  68.5666310  53.6700120  15.9901450  69.0645350
  57.0164170  13.8208400  66.3242830  56.5681470  13.8432660  65.4788380
  56.3829370  13.4227420  66.9213130  57.4223720  22.7162730  66.9455270
  57.8411830  23.5595460  66.7731510  56.5032350  22.8534770  66.7162050
  59.7587620  20.4478910  68.3293110  59.8783830  19.8520050  69.0687950
  60.6181620  20.4848600  67.9094410  62.0975520  21.0016100  66.9055620
  61.5710740  21.5258720  66.3020760  62.4406860  21.6343490  67.5365350
  54.4961910  18.3909470  53.3505330  54.2950970  17.5276830  53.7118670
  54.3253960  18.3042830  52.4126930  55.2731140  29.0215740  68.0613000
  54.7352230  29.7461800  67.7421700  55.5265100  28.5446080  67.2710340
  56.5256390  16.9900260  69.5868930  57.1156080  16.6816110  70.2746750
  55.7076630  16.5180010  69.7428830  61.3449820  16.6066070  69.8201950
  60.6565340  15.9447610  69.7551940  62.0655840  16.1604340  70.2650410
  61.9750220  13.2017700  55.8792210  62.2552510  12.3585600  56.2351630
  61.2015950  13.4340810  56.3930960  53.2944710  15.4910090  53.3383210
  53.5970610  15.4977520  52.4302360  54.0339300  15.1407950  53.8350870
  58.1293350  30.2566950  68.3199650  58.0552050  31.1602090  68.6272020
  57.2272190  29.9378850  68.2921720  56.5129640  14.4344710  54.3239410
  56.1651640  13.7568700  53.7441860  56.7142410  13.9734220  55.1382800
  58.6778680  29.4225460  55.9426010  59.5729470  29.7610430  55.9644770
  58.7096310  28.7004870  55.3150290  52.3174840  24.7952510  54.1713010
  52.7549710  25.3382180  54.8270590  52.8022570  23.9699460  54.1809350
  54.1282560  25.9150550  59.2835240  53.8278100  25.7915520  60.1839150
  54.0220050  25.0559140  58.8750970  65.6573030  27.9529130  68.6492210
  65.0575020  28.0121690  67.9056130  65.7866930  27.0134110  68.7789060
  66.8974480  25.6946950  53.9861920  66.0667440  25.7623600  54.4569150
  67.0746310  26.5851070  53.6828780  66.3530940  22.4394430  56.4896120
  67.1149850  23.0091080  56.5955810  66.3685310  21.8721630  57.2604430
  49.8535280  20.9632360  60.7203780  49.1984120  20.6944000  60.0763480
  50.6913230  20.8536840  60.2705760  67.3590910  23.2944530  61.3338050
  67.7299740  22.5111850  60.9274020  67.9992840  23.9833630  61.1555350
  64.3424670  24.6781110  66.7468370  63.5284510  25.1078270  67.0094160
  64.7498870  25.2899520  66.1337420  66.4050110  22.7328800  53.6468640
  66.6798950  23.6407680  53.5187860  66.2160850  22.6691330  54.5830630
  62.8025720  15.7573650  54.9422270  63.2210600  15.5704630  54.1018930
  62.4961780  14.9052700  55.2525200  66.3015450  20.6697790  58.6398070
  65.9259050  19.9025720  58.2079360  65.5718570  21.0520490  59.1273000
  50.8911210  21.3484930  65.2607120  51.2584250  21.2612330  66.1403140
  50.3222030  20.5851480  65.1613980  65.6915070  19.8169310  68.2737590
  65.4601160  19.5882060  67.3735540  65.9519620  20.7368860  68.2282480
  50.4427210  18.2594020  69.1665540  49.5483260  18.2260780  69.5059250
  50.9824760  18.4580810  69.9316790  64.1303140  15.0425740  71.0517290
  65.0073320  15.0509140  71.4351290  64.1423980  14.3056580  70.4409640
  49.0673360  18.1731290  56.6629110  48.1637440  18.4361490  56.4880770
  49.5513980  18.4442460  55.8829070  65.5766410  18.8955280  61.9405310
  66.1003890  18.4017930  61.3095480  66.1625830  19.0305640  62.6852880
  65.7556130  18.9795150  65.4624860  64.8058840  18.9458690  65.5769850
  65.9369140  19.8895260  65.2274630  51.6100570  17.2296830  54.5723490
  52.3192270  16.8080050  54.0870770  50.8940510  17.2972060  53.9406840
  51.2574730  13.2836160  53.6126140  51.9802860  13.8245100  53.9307360
  51.5299250  13.0099580  52.7367680  65.0666380  18.1528630  57.8797720
  65.5625500  17.9199500  58.6646600  64.8682450  17.3140470  57.4635360
  50.9466920  12.5342350  63.5148760  51.5943110  11.9839730  63.0743920
  51.3668760  12.7885500  64.3364570  66.4953540  16.7889580  60.4135400
  66.3852820  16.6345620  61.3517670  67.2561130  16.2610520  60.1710810
  64.8419260  12.7283710  66.8718400  65.4791480  13.3417850  67.2377590
  64.9894150  12.7644370  65.9267630  67.3843810  14.6197500  53.6541540
  68.3093120  14.4878680  53.4459830  67.3619600  14.6990320  54.6077990
  67.4582300  15.3908160  56.2798250  66.6633800  15.3253280  56.8091160
  67.6625580  16.3258800  56.2683600  64.4000720  29.4299710  60.2736640
  64.9959790  29.1084280  59.5971060  64.6578870  28.9571530  61.0649910
  50.6998920  12.6898020  66.2574080  50.3513740  13.1461840  67.0232260
  50.3686620  11.7955150  66.3396510  52.3063290  25.8617620  70.4227270
  52.2632920  25.4910530  71.3041730  52.4374300  26.7995190  70.5629090
  56.0069320  27.4177210  66.0236990  55.7660680  27.6851770  65.1367510
  56.9471960  27.5882940  66.0787850  58.2123740  13.8809900  69.7793500
  58.1512630  14.4731730  70.5288910  59.1524120  13.7735860  69.6343760
  60.8498300  13.5379960  69.4185790  61.4638710  13.8559250  68.7566870
  61.3947860  13.0528550  70.0381650  67.2673480  29.4371590  66.8247630
  66.7731760  29.8340460  66.1074760  66.6586770  28.8120800  67.2184910
  51.3719560  12.2174220  69.5324850  51.9202550  12.0362270  68.7690960
  51.4374870  11.4268330  70.0681160  52.1451320  28.8079870  67.5425050
  51.5511640  28.6764570  68.2815090  52.1375160  27.9718010  67.0767150
  61.5906340  12.1012100  65.7455080  60.7166180  12.4347210  65.5428010
  61.4817090  11.6285280  66.5706950  62.4978320  14.3082970  67.1296800
  62.1691680  13.4934730  66.7498530  63.4460620  14.2652780  67.0062490
  64.9512930  30.0795010  64.1034370  64.4915900  30.8310820  63.7292390
  64.3225390  29.3601480  64.0449170  51.7763550  26.1738250  66.4933090
  51.0497610  25.5543540  66.4259040  51.8372700  26.5678860  65.6231170
  55.3808650  28.3883250  63.2782500  55.8973670  27.7770610  62.7530760
  56.0306030  28.8912030  63.7693510  58.1204150  29.2791740  64.1051480
  58.4081960  29.0246040  63.2284490  58.6327370  28.7269100  64.6957050
  59.3381160  13.0181940  64.6847990  58.5552950  13.4927440  64.9644750
  59.0444090  12.1136770  64.5761170  63.8902230  13.7205040  62.7297080
  64.3310320  13.6650140  61.8818680  63.6209820  14.6363050  62.8007260
  65.7540800  13.3520280  60.7405900  65.6929200  12.4081500  60.5936920
  66.5332830  13.4600370  61.2859360  50.0593550  29.4912640  59.7029850
  49.8915590  28.8583320  60.4011740  49.1928060  29.6972040  59.3524040
  50.6821570  13.3229420  57.2061710  51.4400930  13.4358300  56.6325740
  50.2198740  14.1598620  57.1605140  57.2235380  15.4368690  60.1964020
  56.4109890  15.0625580  59.8559900  57.7277020  14.6813770  60.4985210
  61.7260360  12.1011140  61.4347090  62.3289730  12.6731350  61.9095610
  60.9853350  12.6650580  61.2120990  64.8694960  12.5032700  56.7087370
  65.0645590  13.4016150  56.9754800  64.0824830  12.2719780  57.2020320
  51.6656250  28.1845870  57.1479990  51.1403870  28.5653900  56.4441950
  51.5900830  28.8096640  57.8689700  53.0546720  13.8493470  55.7463680
  53.5839480  13.0623270  55.6171630  53.6875040  14.5284660  55.9799210
  55.2484560  13.5868610  58.8009070  54.6187300  12.8855920  58.9679200
  54.7089700  14.3472740  58.5842230  58.1876510  30.2007840  71.4719680
  59.1143820  29.9652110  71.5155640  58.1726940  31.0279840  70.9905710
  66.4221570  29.7433410  58.4693930  66.5973760  29.0571150  57.8254850
  65.7243140  30.2680460  58.0770600  55.3740120  12.8652590  71.2361560
  55.0924390  13.3686190  70.4722380  55.7559820  12.0674340  70.8703690
  54.2649220  30.1328250  56.0229240  54.9968040  29.8487530  55.4753130
  54.5242890  29.8941530  56.9128620  53.4264010  26.2492980  56.0275570
  52.7972890  26.7178080  56.5761400  53.5411840  25.4042200  56.4621760
  61.9755580  12.2806170  71.8142030  61.8621030  12.6000780  72.7093550
  62.7925320  12.6818680  71.5179310  64.7554070  29.4277700  71.2960720
  65.5479390  28.9326930  71.0886680  65.0487220  30.1067840  71.9036330
  60.8813730  20.2998640  42.1776770  60.8007780  19.3853250  41.9068480
  60.4678150  20.7965710  41.4716480  59.0131770  22.0777660  44.0586040
  58.2373870  21.5978100  44.3484610  59.6644700  21.3983310  43.8842200
  53.0297600  22.3897470  44.9361800  52.1982480  22.1346180  45.3358310
  53.6378580  22.4608240  45.6719720  63.0339200  26.4837850  42.8385170
  62.5720730  25.7125090  43.1672340  63.8464750  26.5103920  43.3437620
  53.0098860  26.4237560  45.1319820  53.3126900  25.5335300  44.9530040
  53.7542450  26.9807780  44.9042070  51.4389550  17.3499360  38.7204190
  50.5506250  17.6915330  38.6184070  51.7230740  17.1499680  37.8285020
  49.4022560  19.9505010  44.6043890  49.9738670  19.1827210  44.6047530
  49.4024100  20.2493770  43.6950500  59.2602510  28.7695860  42.4589160
  58.6413950  29.2253360  41.8883600  60.1154290  28.9247320  42.0578860
  58.4540760  24.7534850  44.0656200  58.3849040  23.8124790  43.9045330
  59.2160620  24.8436260  44.6378770  50.6447430  15.3589370  46.3912820
  50.4650270  14.4615120  46.6715580  50.2427510  15.9061240  47.0659770
  59.4845930  17.5605230  44.2925130  59.8610750  16.6877110  44.1798800
  59.3865440  17.8963930  43.4015570  53.6150940  15.9330860  39.7542570
  53.7217690  16.8334590  40.0611330  52.7043300  15.8848830  39.4637220
  63.2670050  15.0555670  41.2253470  64.0879670  14.5652240  41.2678950
  63.3004130  15.6453330  41.9785310  51.2634100  17.8549870  44.9995160
  51.9444210  18.1188240  45.6182560  50.9482150  17.0150740  45.3333170
  55.4558670  18.9017230  44.0867750  55.9636890  19.3998200  44.7272770
  55.9871910  18.1252430  43.9107110  67.5569600  17.0722420  47.7897100
  66.8521770  17.4604130  47.2712210  67.8227520  17.7672710  48.3918030
  53.7394770  13.5415790  48.3531170  53.7413210  14.0588180  47.5477070
  52.9099080  13.0645970  48.3301100  60.1265860  23.6535100  39.8521070
  59.5083130  24.1184550  39.2883790  60.6389110  24.3462580  40.2690580
  54.9897620  23.1810970  46.5304670  54.6567000  23.8079890  47.1725740
  55.1664300  23.7072850  45.7506340  63.5031530  16.9956050  43.9981010
  62.7987100  17.2840940  44.5784120  63.8643690  17.8056160  43.6380570
  53.4210100  15.2525750  46.3601620  53.7626910  16.0967800  46.0655490
  52.4825910  15.4009490  46.4766960  54.2016720  25.1491770  48.3453850
  54.8190720  25.8242850  48.0638300  53.3409840  25.5579750  48.2541350
  49.4949060  24.3391630  37.2260700  49.1177040  24.8278730  36.4945600
  49.7522130  25.0116910  37.8567230  65.1194310  26.6131180  46.2608490
  64.4357830  27.2830290  46.2525160  65.6588600  26.8111830  45.4953350
  66.5718450  16.4410840  44.3890220  65.6243360  16.4749820  44.5205650
  66.8968440  17.2549790  44.7739580  57.1037990  12.7408020  42.6846210
  57.4112970  12.1854910  41.9681710  56.1738690  12.8752480  42.5019200
  62.6553050  28.4575310  44.9753670  62.6680210  28.0537600  44.1075930
  62.1028270  29.2322600  44.8715100  63.9498470  25.1791530  40.0643840
  63.8394800  24.2365860  40.1893260  63.9466720  25.5407170  40.9506600
  62.0538490  23.3605150  46.3036280  62.4707280  23.1465260  45.4689740
  62.7778310  23.6177940  46.8744900  59.4918750  20.8056850  39.4206330
  58.5648030  20.7394230  39.6494800  59.6443570  21.7436980  39.3061570
  59.4787830  17.0773850  36.4173490  58.5391500  17.2387810  36.5025950
  59.7971090  17.7959530  35.8709480  66.0000590  21.7592370  46.3952520
  65.1719220  21.8285460  45.9202650  66.5951070  22.3446680  45.9268350
  63.5216040  22.3677150  39.9241580  62.9028460  22.0296700  39.2767880
  63.5040490  21.7236910  40.6320770  62.9642600  18.5461690  47.3407390
  62.5513780  19.3715400  47.5947380  62.2318550  17.9606730  47.1483750
  55.0975390  21.3321590  42.2026060  54.6932390  20.6198840  41.7071960
  55.1838510  20.9874830  43.0914100  55.5657090  25.0189150  44.3665270
  55.2685380  24.4134620  43.6873050  56.5156910  25.0566460  44.2554630
  53.8104010  18.1064800  45.9825100  54.3618600  18.2160140  45.2078350
  54.3247520  18.4802400  46.6980330  63.6542700  28.5921020  48.0288370
  63.1773260  29.3993210  47.8360980  62.9704490  27.9399350  48.1814580
  54.6575520  24.7570840  51.0173070  53.7604050  24.9810810  51.2646470
  54.6828390  24.8805780  50.0684470  61.6980740  21.6063960  36.9314330
  62.1374020  20.7686390  36.7852150  62.4109160  22.2393360  37.0178470
  53.4846740  21.6284160  49.5930440  53.3454510  22.5006960  49.9617840
  52.6028100  21.2856970  49.4478380  59.8076120  26.5460030  40.8995570
  60.2472030  27.2884360  40.4850960  59.7463010  26.7886600  41.8234530
  55.2827090  27.5705860  51.8015590  55.2542520  27.9748810  50.9344020
  55.1192060  26.6416220  51.6387190  65.2797880  12.8606770  35.2455370
  64.9670540  12.9533600  36.1454440  66.0410350  13.4387800  35.1952800
  51.7980020  20.2266570  39.7032710  51.6777620  20.9528660  39.0913980
  51.4880910  19.4569480  39.2260620  67.2341910  28.3532960  53.0979760
  67.7101630  28.8315850  53.7768840  67.8549070  28.2850450  52.3725260
  49.4365390  23.3981710  45.5101350  49.5145810  23.5330480  44.5657070
  50.0507070  22.6897600  45.7029470  50.6813020  25.0981900  41.9207530
  50.2741100  25.2396490  41.0661130  51.5726030  24.8142060  41.7178740
  66.6375160  25.5445810  50.2579770  66.7638220  25.3057690  49.3396950
  66.6796540  24.7130350  50.7301850  60.4991900  29.2473810  48.8274580
  61.0136570  29.1581820  49.6297010  59.6560980  29.5933510  49.1202490
  62.4746300  29.5329150  38.2558580  62.3147440  29.2432090  39.1540410
  62.3093010  28.7569280  37.7203810  54.9534680  29.3127680  40.0330200
  54.7777160  28.3963220  39.8198000  54.0990420  29.6714970  40.2728000
  62.1772430  27.0416710  36.8156580  61.4837590  27.0394000  36.1558860
  62.9195290  26.6176030  36.3850750  61.7422360  28.6679420  40.8905070
  62.1979310  27.8868800  41.2043690  62.0814880  29.3786240  41.4346250
  66.4899170  17.5978270  51.2229510  65.8743440  18.1057940  50.6944970
  66.1695590  16.6976600  51.1655450  54.2643680  13.5701640  43.0856380
  53.8211830  14.3511180  42.7540900  54.8228670  13.8931530  43.7927320
  58.5513490  16.4370160  48.6891700  58.0892860  16.6453180  49.5011640
  58.1491600  15.6229510  48.3862370  63.5518000  17.6579110  49.8188360
  62.7011590  17.3584860  50.1397430  63.3919790  17.9021120  48.9072180
  60.6467710  19.1580860  51.9187150  60.9721120  18.3244610  51.5789380
  61.4348040  19.6809380  52.0665480  57.3802500  13.1912340  37.9662210
  56.7556680  13.1872210  38.6915520  57.2932620  12.3243300  37.5698180
  56.3019580  14.1148970  44.9445980  56.5991910  15.0211800  44.8638000
  56.8505140  13.6267750  44.3305550  54.0557900  18.6935210  40.8137630
  53.8298820  18.4772380  41.7184250  53.2750430  19.1263670  40.4683600
  61.2855660  18.6998580  39.4128280  60.6864550  19.4234380  39.2291900
  61.8335270  18.6375360  38.6304730  56.4957110  19.5920790  51.4797900
  56.4000710  18.6515520  51.3298300  57.3389090  19.8135860  51.0845970
  59.8920530  17.3362120  41.4431560  60.2850100  17.6534320  40.6300250
  60.2537380  16.4574000  41.5576080  51.6267650  16.0034460  49.6331680
  51.2331040  16.8509670  49.8404460  50.9386050  15.3660830  49.8240320
  58.2012700  16.0869430  52.7028420  57.5111020  15.8941630  53.3374510
  58.9445000  16.3704070  53.2352720  48.9284700  13.9262920  43.6661760
  48.6397750  14.4965780  44.3786740  49.6730460  13.4467370  44.0292990
  49.1154930  17.8683040  34.8764480  49.0329600  18.8113800  35.0179470
  48.7637990  17.7257950  33.9976830  60.4775670  19.9267870  45.5382340
  59.7456790  20.4354680  45.8872440  60.0800010  19.1097850  45.2371120
  56.9153060  16.6022070  43.9434830  56.9189120  16.1612020  43.0939370
  57.8104180  16.9239400  44.0506650  52.7655440  16.4848560  42.9029040
  52.4255490  16.9623790  43.6596090  52.0032760  16.0313680  42.5430140
  56.9773210  17.6034150  36.9341590  57.0986030  17.5620630  37.8827410
  56.5921720  18.4658300  36.7788320  60.9401580  15.3801550  44.9505280
  60.9574320  15.8310200  45.7947130  60.6917160  14.4807190  45.1638720
  55.9894710  19.9135290  36.3324890  55.4211610  19.4653540  35.7060800
  56.6983710  20.2728070  35.7990040  64.3672330  12.7933730  50.7891660
  64.6918100  12.0623390  51.3149640  64.4028840  12.4747370  49.8872650
  57.2161030  20.6623850  45.6900240  57.5831160  20.1882420  46.4361580
  57.0266090  21.5365420  46.0308580  50.0801520  15.4067540  41.8193710
  49.7948440  15.0423210  42.6572330  50.0180380  14.6748000  41.2056850
  55.0060400  19.7032490  48.0084450  54.7017470  20.5824470  48.2334810
  55.9606860  19.7632280  48.0441890  53.5342190  23.9093480  38.6051300
  52.7604450  23.3691100  38.4450020  54.2636820  23.3900090  38.2669060
  64.2930170  22.9058840  44.3977690  65.0129290  23.4014130  44.0073800
  64.0911990  22.2276730  43.7531560  59.7540110  14.2996800  38.5407080
  58.9404720  13.8009970  38.4652390  59.5602060  15.1395050  38.1243430
  59.6748970  22.9767900  50.2846690  59.6086280  22.0563570  50.0304280
  59.0454110  23.0743340  50.9991330  62.4688500  18.6716450  36.8369240
  63.3568120  18.9833680  36.6620580  62.4393590  17.7988700  36.4449820
  53.5779590  23.5773860  42.2430110  54.0958260  22.7742120  42.1887000
  53.1263610  23.5153000  43.0846940  58.4649090  24.8440140  37.5157410
  58.8064790  25.5882370  37.0200730  57.6361800  25.1571260  37.8782240
  51.0624130  20.5435230  49.1555810  50.7039070  21.2089080  49.7429150
  50.7678690  19.7118780  49.5268430  54.2637250  21.0019470  52.0395360
  53.9637390  21.1476650  51.1423180  55.0348490  20.4424760  51.9468750
  59.6065700  25.7988470  50.0350490  59.6210240  24.8669430  49.8169400
  58.8990800  25.8848230  50.6740260  64.7402770  19.9828290  36.3049100
  64.6566490  20.4142510  35.4545540  65.4596960  20.4426640  36.7375920
  65.8176910  22.4395810  49.3819070  65.0925100  23.0324590  49.1848460
  66.3452370  22.4319350  48.5832440  65.7690020  26.8370550  39.0331230
  65.1266180  26.1826170  39.3074950  65.3820680  27.2425640  38.2571900
  61.3476500  24.1655980  42.8802920  61.7000320  23.5684110  42.2204290
  60.4638830  23.8400210  43.0511170  57.4339780  24.9253670  40.2873330
  58.1210910  25.4722880  40.6680920  56.6472200  25.4694400  40.3222940
  49.5732180  20.5426490  35.7790410  50.4427030  20.8251290  36.0626330
  49.0822500  21.3562360  35.6639220  56.7366990  21.9299700  39.8998690
  57.1929770  22.7404950  40.1258880  56.3855200  21.6122840  40.7317180
  59.0399600  27.4406040  47.1290990  59.6841820  27.6465420  47.8064410
  59.4029040  26.6794440  46.6761840  52.6378770  12.2737350  40.3721210
  52.5093400  12.2655250  41.3206130  51.8140790  12.6120440  40.0212220
  60.3131680  25.4438390  45.8468440  60.9553910  24.7431550  45.9600610
  60.8381030  26.2236830  45.6665330  64.1587400  25.7287010  35.5707580
  63.9324980  25.0117450  36.1632220  63.7683600  25.4799450  34.7329330
  62.0869300  26.2433290  49.0504500  62.4225540  26.8299980  49.7282420
  61.1669640  26.1126000  49.2802290  49.9403430  29.7553870  36.3452040
  50.3001070  30.3543210  35.6909310  49.7995770  30.3013760  37.1187070
  49.6372700  14.0328470  49.8327910  48.9231220  14.2325390  50.4380520
  50.0567740  13.2568040  50.2042710  63.7403650  23.6458950  37.2321740
  63.4525350  24.1071640  38.0199620  64.5355820  23.1856720  37.5005960
  57.9157880  26.2924620  52.2192560  57.5954750  25.5733860  52.7638250
  57.2416240  26.9679690  52.2928620  55.9572050  27.1385070  37.1625710
  55.9482150  27.8714760  36.5470220  55.0370410  26.8916650  37.2552670
  51.5578690  22.3599960  37.9072470  50.9506640  23.0998860  37.9167770
  52.0328040  22.4499320  37.0810670  61.1311480  16.5250780  47.5829360
  61.4992300  15.7045990  47.9108930  60.2709680  16.5852670  47.9985010
  64.4973510  15.4807720  38.3916920  63.8686670  15.5853390  37.6775150
  64.0025430  15.7004500  39.1810800  58.9431650  27.2013310  35.8250900
  59.0443630  26.9977300  34.8952880  58.0433390  26.9471590  36.0298680
  56.4657540  17.7593670  39.8074800  55.7573690  18.2280010  40.2488410
  56.7502020  17.1015680  40.4419990  58.0913470  19.1790370  47.8067330
  58.5898720  19.6536190  48.4719180  58.2336420  18.2553890  48.0137360
  60.4972970  14.4844330  41.2470590  60.3740750  14.5030460  40.2980100
  61.4457530  14.5323270  41.3668990  57.5849760  29.7199630  40.5198570
  57.8391260  29.6821020  39.5977940  56.6362240  29.5932960  40.5126820
  54.6692560  16.0678750  37.1825510  55.5183090  16.5048900  37.1165700
  54.3023830  16.3799010  38.0097570  65.2980330  15.3958330  48.6495720
  64.7953930  16.1363730  48.9889530  66.1136990  15.7842330  48.3332510
  63.5902340  20.6391510  42.0957080  62.6492480  20.6541740  42.2704770
  63.9046410  19.8527470  42.5417380  53.5683980  22.3211110  35.6561040
  54.3347250  22.2092470  36.2186470  53.6458670  21.6249080  35.0037810
  52.2630740  19.7536180  36.3393930  52.3434330  18.8063690  36.4511330
  53.1550490  20.0843060  36.4454590  65.5927920  27.8100360  43.7711340
  65.7175340  28.6331530  44.2435150  66.4593480  27.5991090  43.4235490
  53.0645450  29.9031570  43.4428470  53.8007930  29.3547030  43.7137040
  53.4486370  30.7687580  43.3034460  49.9490930  25.9705140  39.3169980
  49.0230710  26.2126280  39.3075390  50.4147360  26.7979400  39.1954730
  56.1747760  29.0761880  35.2654040  56.9676370  29.3650710  34.8135830
  55.6552110  28.6454050  34.5866520  60.9068360  25.1957510  52.5789460
  60.3006520  25.2189110  51.8385210  60.6022470  24.4640550  53.1156710
  62.3368730  28.9237800  51.1898870  63.2890480  28.8395820  51.1399110
  62.1896950  29.5879510  51.8632660  65.2277930  28.3032010  36.6890780
  64.9419440  27.8897150  35.8744960  65.0297480  29.2319720  36.5691300
  56.6925160  24.2965290  35.1296390  56.5875800  23.6817640  35.8557770
  56.5249380  23.7731180  34.3459400  56.8439480  22.9822090  51.1085620
  56.0785150  23.5507090  51.0240290  57.0255440  22.6898300  50.2153850
  59.9327890  23.3585320  35.7338380  59.3837990  23.8054620  36.3781120
  60.5547150  22.8534570  36.2576050  63.9862830  24.7127420  51.6660640
  64.7272300  25.0503180  51.1628100  63.2235510  24.8819480  51.1130410
  55.6003010  22.3176240  37.6303680  56.0219430  22.1516110  38.4735070
  55.7253850  21.5076470  37.1358820  53.7630430  18.2972790  50.4374660
  53.2326890  17.8063740  49.8098000  54.4318500  18.7256990  49.9032590
  58.1130650  21.3413850  34.8780780  58.6336310  20.6262870  34.5121930
  58.7599050  21.9799720  35.1781290  62.6608490  22.7642250  50.2015850
  63.0749510  22.9187330  51.0506270  61.7259490  22.8897470  50.3641630
  63.1330660  20.1038410  52.2055000  63.7151430  19.3490730  52.1175480
  63.3092430  20.6345850  51.4286480  54.2502730  15.2635160  50.5171950
  54.1559600  14.6455910  49.7922820  53.6700120  15.9901450  50.2901860
  57.0164170  13.8208400  47.5499340  56.5681470  13.8432660  46.7044890
  56.3829370  13.4227420  48.1469640  57.4223720  22.7162730  48.1711780
  57.8411830  23.5595460  47.9988020  56.5032350  22.8534770  47.9418560
  59.7587620  20.4478910  49.5549620  59.8783830  19.8520050  50.2944460
  60.6181620  20.4848600  49.1350920  62.0975520  21.0016100  48.1312130
  61.5710740  21.5258720  47.5277270  62.4406860  21.6343490  48.7621860
  54.4961910  18.3909470  34.5761840  54.2950970  17.5276830  34.9375180
  54.3253960  18.3042830  33.6383440  55.2731140  29.0215740  49.2869510
  54.7352230  29.7461800  48.9678210  55.5265100  28.5446080  48.4966850
  56.5256390  16.9900260  50.8125440  57.1156080  16.6816110  51.5003260
  55.7076630  16.5180010  50.9685340  61.3449820  16.6066070  51.0458460
  60.6565340  15.9447610  50.9808450  62.0655840  16.1604340  51.4906920
  61.9750220  13.2017700  37.1048720  62.2552510  12.3585600  37.4608140
  61.2015950  13.4340810  37.6187470  53.2944710  15.4910090  34.5639720
  53.5970610  15.4977520  33.6558870  54.0339300  15.1407950  35.0607380
  58.1293350  30.2566950  49.5456160  58.0552050  31.1602090  49.8528530
  57.2272190  29.9378850  49.5178230  56.5129640  14.4344710  35.5495920
  56.1651640  13.7568700  34.9698370  56.7142410  13.9734220  36.3639310
  58.6778680  29.4225460  37.1682520  59.5729470  29.7610430  37.1901280
  58.7096310  28.7004870  36.5406800  52.3174840  24.7952510  35.3969520
  52.7549710  25.3382180  36.0527100  52.8022570  23.9699460  35.4065860
  49.5320640  27.5841540  42.8489780  49.8623650  26.7162600  42.6168420
  49.9611640  27.7900060  43.6794740  54.1282560  25.9150550  40.5091750
  53.8278100  25.7915520  41.4095660  54.0220050  25.0559140  40.1007480
  50.0210850  28.4512130  45.5871410  49.5841840  28.6312930  46.4195560
  50.5888530  29.2086750  45.4453130  65.6573030  27.9529130  49.8748720
  65.0575020  28.0121690  49.1312640  65.7866930  27.0134110  50.0045570
  66.8974480  25.6946950  35.2118430  66.0667440  25.7623600  35.6825660
  67.0746310  26.5851070  34.9085290  66.3530940  22.4394430  37.7152630
  67.1149850  23.0091080  37.8212320  66.3685310  21.8721630  38.4860940
  49.8535280  20.9632360  41.9460290  49.1984120  20.6944000  41.3019990
  50.6913230  20.8536840  41.4962270  67.3590910  23.2944530  42.5594560
  67.7299740  22.5111850  42.1530530  67.9992840  23.9833630  42.3811860
  64.3424670  24.6781110  47.9724880  63.5284510  25.1078270  48.2350670
  64.7498870  25.2899520  47.3593930  66.4050110  22.7328800  34.8725150
  66.6798950  23.6407680  34.7444370  66.2160850  22.6691330  35.8087140
  62.8025720  15.7573650  36.1678780  63.2210600  15.5704630  35.3275440
  62.4961780  14.9052700  36.4781710  66.3015450  20.6697790  39.8654580
  65.9259050  19.9025720  39.4335870  65.5718570  21.0520490  40.3529510
  50.8911210  21.3484930  46.4863630  51.2584250  21.2612330  47.3659650
  50.3222030  20.5851480  46.3870490  65.6915070  19.8169310  49.4994100
  65.4601160  19.5882060  48.5992050  65.9519620  20.7368860  49.4538990
  64.1303140  15.0425740  52.2773800  65.0073320  15.0509140  52.6607800
  64.1423980  14.3056580  51.6666150  49.0673360  18.1731290  37.8885620
  48.1637440  18.4361490  37.7137280  49.5513980  18.4442460  37.1085580
  65.5766410  18.8955280  43.1661820  66.1003890  18.4017930  42.5351990
  66.1625830  19.0305640  43.9109390  65.7556130  18.9795150  46.6881370
  64.8058840  18.9458690  46.8026360  65.9369140  19.8895260  46.4531140
  51.6100570  17.2296830  35.7980000  52.3192270  16.8080050  35.3127280
  50.8940510  17.2972060  35.1663350  51.2574730  13.2836160  34.8382650
  51.9802860  13.8245100  35.1563870  51.5299250  13.0099580  33.9624190
  65.0666380  18.1528630  39.1054230  65.5625500  17.9199500  39.8903110
  64.8682450  17.3140470  38.6891870  50.9466920  12.5342350  44.7405270
  51.5943110  11.9839730  44.3000430  51.3668760  12.7885500  45.5621080
  66.4953540  16.7889580  41.6391910  66.3852820  16.6345620  42.5774180
  67.2561130  16.2610520  41.3967320  64.8419260  12.7283710  48.0974910
  65.4791480  13.3417850  48.4634100  64.9894150  12.7644370  47.1524140
  67.3843810  14.6197500  34.8798050  68.3093120  14.4878680  34.6716340
  67.3619600  14.6990320  35.8334500  67.4582300  15.3908160  37.5054760
  66.6633800  15.3253280  38.0347670  67.6625580  16.3258800  37.4940110
  64.4000720  29.4299710  41.4993150  64.9959790  29.1084280  40.8227570
  64.6578870  28.9571530  42.2906420  50.6998920  12.6898020  47.4830590
  50.3513740  13.1461840  48.2488770  50.3686620  11.7955150  47.5653020
  52.3063290  25.8617620  51.6483780  52.2632920  25.4910530  52.5298240
  52.4374300  26.7995190  51.7885600  56.0069320  27.4177210  47.2493500
  55.7660680  27.6851770  46.3624020  56.9471960  27.5882940  47.3044360
  58.2123740  13.8809900  51.0050010  58.1512630  14.4731730  51.7545420
  59.1524120  13.7735860  50.8600270  60.8498300  13.5379960  50.6442300
  61.4638710  13.8559250  49.9823380  61.3947860  13.0528550  51.2638160
  67.2673480  29.4371590  48.0504140  66.7731760  29.8340460  47.3331270
  66.6586770  28.8120800  48.4441420  51.3719560  12.2174220  50.7581360
  51.9202550  12.0362270  49.9947470  51.4374870  11.4268330  51.2937670
  61.5906340  12.1012100  46.9711590  60.7166180  12.4347210  46.7684520
  61.4817090  11.6285280  47.7963460  62.4978320  14.3082970  48.3553310
  62.1691680  13.4934730  47.9755040  63.4460620  14.2652780  48.2319000
  64.9512930  30.0795010  45.3290880  64.4915900  30.8310820  44.9548900
  64.3225390  29.3601480  45.2705680  51.7763550  26.1738250  47.7189600
  51.0497610  25.5543540  47.6515550  51.8372700  26.5678860  46.8487680
  55.3808650  28.3883250  44.5039010  55.8973670  27.7770610  43.9787270
  56.0306030  28.8912030  44.9950020  58.1204150  29.2791740  45.3307990
  58.4081960  29.0246040  44.4541000  58.6327370  28.7269100  45.9213560
  59.3381160  13.0181940  45.9104500  58.5552950  13.4927440  46.1901260
  59.0444090  12.1136770  45.8017680  63.8902230  13.7205040  43.9553590
  64.3310320  13.6650140  43.1075190  63.6209820  14.6363050  44.0263770
  65.7540800  13.3520280  41.9662410  65.6929200  12.4081500  41.8193430
  66.5332830  13.4600370  42.5115870  50.0593550  29.4912640  40.9286360
  49.8915590  28.8583320  41.6268250  49.1928060  29.6972040  40.5780550
  50.6821570  13.3229420  38.4318220  51.4400930  13.4358300  37.8582250
  50.2198740  14.1598620  38.3861650  57.2235380  15.4368690  41.4220530
  56.4109890  15.0625580  41.0816410  57.7277020  14.6813770  41.7241720
  61.7260360  12.1011140  42.6603600  62.3289730  12.6731350  43.1352120
  60.9853350  12.6650580  42.4377500  64.8694960  12.5032700  37.9343880
  65.0645590  13.4016150  38.2011310  64.0824830  12.2719780  38.4276830
  51.6656250  28.1845870  38.3736500  51.1403870  28.5653900  37.6698460
  51.5900830  28.8096640  39.0946210  53.0546720  13.8493470  36.9720190
  53.5839480  13.0623270  36.8428140  53.6875040  14.5284660  37.2055720
  55.2484560  13.5868610  40.0265580  54.6187300  12.8855920  40.1935710
  54.7089700  14.3472740  39.8098740  58.1876510  30.2007840  52.6976190
  59.1143820  29.9652110  52.7412150  58.1726940  31.0279840  52.2162220
  66.4221570  29.7433410  39.6950440  66.5973760  29.0571150  39.0511360
  65.7243140  30.2680460  39.3027110  55.3740120  12.8652590  52.4618070
  55.0924390  13.3686190  51.6978890  55.7559820  12.0674340  52.0960200
  54.2649220  30.1328250  37.2485750  54.9968040  29.8487530  36.7009640
  54.5242890  29.8941530  38.1385130  53.4264010  26.2492980  37.2532080
  52.7972890  26.7178080  37.8017910  53.5411840  25.4042200  37.6878270
  61.9755580  12.2806170  53.0398540  61.8621030  12.6000780  53.9350060
  62.7925320  12.6818680  52.7435820  64.7554070  29.4277700  52.5217230
  65.5479390  28.9326930  52.3143190  65.0487220  30.1067840  53.1292840
  60.8813730  20.2998640  23.4033280  60.8007780  19.3853250  23.1324990
  60.4678150  20.7965710  22.6972990  59.0131770  22.0777660  25.2842550
  58.2373870  21.5978100  25.5741120  59.6644700  21.3983310  25.1098710
  53.0297600  22.3897470  26.1618310  52.1982480  22.1346180  26.5614820
  53.6378580  22.4608240  26.8976230  63.0339200  26.4837850  24.0641680
  62.5720730  25.7125090  24.3928850  63.8464750  26.5103920  24.5694130
  53.0098860  26.4237560  26.3576330  53.3126900  25.5335300  26.1786550
  53.7542450  26.9807780  26.1298580  51.4389550  17.3499360  19.9460700
  50.5506250  17.6915330  19.8440580  51.7230740  17.1499680  19.0541530
  49.4022560  19.9505010  25.8300400  49.9738670  19.1827210  25.8304040
  49.4024100  20.2493770  24.9207010  59.2602510  28.7695860  23.6845670
  58.6413950  29.2253360  23.1140110  60.1154290  28.9247320  23.2835370
  58.4540760  24.7534850  25.2912710  58.3849040  23.8124790  25.1301840
  59.2160620  24.8436260  25.8635280  50.6447430  15.3589370  27.6169330
  50.4650270  14.4615120  27.8972090  50.2427510  15.9061240  28.2916280
  59.4845930  17.5605230  25.5181640  59.8610750  16.6877110  25.4055310
  59.3865440  17.8963930  24.6272080  53.6150940  15.9330860  20.9799080
  53.7217690  16.8334590  21.2867840  52.7043300  15.8848830  20.6893730
  63.2670050  15.0555670  22.4509980  64.0879670  14.5652240  22.4935460
  63.3004130  15.6453330  23.2041820  51.2634100  17.8549870  26.2251670
  51.9444210  18.1188240  26.8439070  50.9482150  17.0150740  26.5589680
  55.4558670  18.9017230  25.3124260  55.9636890  19.3998200  25.9529280
  55.9871910  18.1252430  25.1363620  67.5569600  17.0722420  29.0153610
  66.8521770  17.4604130  28.4968720  67.8227520  17.7672710  29.6174540
  53.7394770  13.5415790  29.5787680  53.7413210  14.0588180  28.7733580
  52.9099080  13.0645970  29.5557610  60.1265860  23.6535100  21.0777580
  59.5083130  24.1184550  20.5140300  60.6389110  24.3462580  21.4947090
  54.9897620  23.1810970  27.7561180  54.6567000  23.8079890  28.3982250
  55.1664300  23.7072850  26.9762850  63.5031530  16.9956050  25.2237520
  62.7987100  17.2840940  25.8040630  63.8643690  17.8056160  24.8637080
  53.4210100  15.2525750  27.5858130  53.7626910  16.0967800  27.2912000
  52.4825910  15.4009490  27.7023470  54.2016720  25.1491770  29.5710360
  54.8190720  25.8242850  29.2894810  53.3409840  25.5579750  29.4797860
  49.4949060  24.3391630  18.4517210  49.1177040  24.8278730  17.7202110
  49.7522130  25.0116910  19.0823740  65.1194310  26.6131180  27.4865000
  64.4357830  27.2830290  27.4781670  65.6588600  26.8111830  26.7209860
  66.5718450  16.4410840  25.6146730  65.6243360  16.4749820  25.7462160
  66.8968440  17.2549790  25.9996090  57.1037990  12.7408020  23.9102720
  57.4112970  12.1854910  23.1938220  56.1738690  12.8752480  23.7275710
  62.6553050  28.4575310  26.2010180  62.6680210  28.0537600  25.3332440
  62.1028270  29.2322600  26.0971610  63.9498470  25.1791530  21.2900350
  63.8394800  24.2365860  21.4149770  63.9466720  25.5407170  22.1763110
  62.0538490  23.3605150  27.5292790  62.4707280  23.1465260  26.6946250
  62.7778310  23.6177940  28.1001410  59.4918750  20.8056850  20.6462840
  58.5648030  20.7394230  20.8751310  59.6443570  21.7436980  20.5318080
  59.4787830  17.0773850  17.6430000  58.5391500  17.2387810  17.7282460
  59.7971090  17.7959530  17.0965990  66.0000590  21.7592370  27.6209030
  65.1719220  21.8285460  27.1459160  66.5951070  22.3446680  27.1524860
  63.5216040  22.3677150  21.1498090  62.9028460  22.0296700  20.5024390
  63.5040490  21.7236910  21.8577280  62.9642600  18.5461690  28.5663900
  62.5513780  19.3715400  28.8203890  62.2318550  17.9606730  28.3740260
  55.0975390  21.3321590  23.4282570  54.6932390  20.6198840  22.9328470
  55.1838510  20.9874830  24.3170610  55.5657090  25.0189150  25.5921780
  55.2685380  24.4134620  24.9129560  56.5156910  25.0566460  25.4811140
  53.8104010  18.1064800  27.2081610  54.3618600  18.2160140  26.4334860
  54.3247520  18.4802400  27.9236840  63.6542700  28.5921020  29.2544880
  63.1773260  29.3993210  29.0617490  62.9704490  27.9399350  29.4071090
  54.6575520  24.7570840  32.2429580  53.7604050  24.9810810  32.4902980
  54.6828390  24.8805780  31.2940980  61.6980740  21.6063960  18.1570840
  62.1374020  20.7686390  18.0108660  62.4109160  22.2393360  18.2434980
  53.4846740  21.6284160  30.8186950  53.3454510  22.5006960  31.1874350
  52.6028100  21.2856970  30.6734890  59.8076120  26.5460030  22.1252080
  60.2472030  27.2884360  21.7107470  59.7463010  26.7886600  23.0491040
  55.2827090  27.5705860  33.0272100  55.2542520  27.9748810  32.1600530
  55.1192060  26.6416220  32.8643700  65.2797880  12.8606770  16.4711880
  64.9670540  12.9533600  17.3710950  66.0410350  13.4387800  16.4209310
  51.7980020  20.2266570  20.9289220  51.6777620  20.9528660  20.3170490
  51.4880910  19.4569480  20.4517130  67.2341910  28.3532960  34.3236270
  67.7101630  28.8315850  35.0025350  67.8549070  28.2850450  33.5981770
  49.4365390  23.3981710  26.7357860  49.5145810  23.5330480  25.7913580
  50.0507070  22.6897600  26.9285980  50.6813020  25.0981900  23.1464040
  50.2741100  25.2396490  22.2917640  51.5726030  24.8142060  22.9435250
  66.6375160  25.5445810  31.4836280  66.7638220  25.3057690  30.5653460
  66.6796540  24.7130350  31.9558360  60.4991900  29.2473810  30.0531090
  61.0136570  29.1581820  30.8553520  59.6560980  29.5933510  30.3459000
  62.4746300  29.5329150  19.4815090  62.3147440  29.2432090  20.3796920
  62.3093010  28.7569280  18.9460320  54.9534680  29.3127680  21.2586710
  54.7777160  28.3963220  21.0454510  54.0990420  29.6714970  21.4984510
  62.1772430  27.0416710  18.0413090  61.4837590  27.0394000  17.3815370
  62.9195290  26.6176030  17.6107260  61.7422360  28.6679420  22.1161580
  62.1979310  27.8868800  22.4300200  62.0814880  29.3786240  22.6602760
  66.4899170  17.5978270  32.4486020  65.8743440  18.1057940  31.9201480
  66.1695590  16.6976600  32.3911960  49.4924910  24.4395880  29.2752320
  49.6555950  23.9701240  28.4571690  49.9577360  23.9319440  29.9401160
  54.2643680  13.5701640  24.3112890  53.8211830  14.3511180  23.9797410
  54.8228670  13.8931530  25.0183830  58.5513490  16.4370160  29.9148210
  58.0892860  16.6453180  30.7268150  58.1491600  15.6229510  29.6118880
  63.5518000  17.6579110  31.0444870  62.7011590  17.3584860  31.3653940
  63.3919790  17.9021120  30.1328690  60.6467710  19.1580860  33.1443660
  60.9721120  18.3244610  32.8045890  61.4348040  19.6809380  33.2921990
  57.3802500  13.1912340  19.1918720  56.7556680  13.1872210  19.9172030
  57.2932620  12.3243300  18.7954690  56.3019580  14.1148970  26.1702490
  56.5991910  15.0211800  26.0894510  56.8505140  13.6267750  25.5562060
  54.0557900  18.6935210  22.0394140  53.8298820  18.4772380  22.9440760
  53.2750430  19.1263670  21.6940110  61.2855660  18.6998580  20.6384790
  60.6864550  19.4234380  20.4548410  61.8335270  18.6375360  19.8561240
  56.4957110  19.5920790  32.7054410  56.4000710  18.6515520  32.5554810
  57.3389090  19.8135860  32.3102480  59.8920530  17.3362120  22.6688070
  60.2850100  17.6534320  21.8556760  60.2537380  16.4574000  22.7832590
  51.6267650  16.0034460  30.8588190  51.2331040  16.8509670  31.0660970
  50.9386050  15.3660830  31.0496830  58.2012700  16.0869430  33.9284930
  57.5111020  15.8941630  34.5631020  58.9445000  16.3704070  34.4609230
  48.9284700  13.9262920  24.8918270  48.6397750  14.4965780  25.6043250
  49.6730460  13.4467370  25.2549500  49.1154930  17.8683040  16.1020990
  49.0329600  18.8113800  16.2435980  48.7637990  17.7257950  15.2233340
  60.4775670  19.9267870  26.7638850  59.7456790  20.4354680  27.1128950
  60.0800010  19.1097850  26.4627630  56.9153060  16.6022070  25.1691340
  56.9189120  16.1612020  24.3195880  57.8104180  16.9239400  25.2763160
  52.7655440  16.4848560  24.1285550  52.4255490  16.9623790  24.8852600
  52.0032760  16.0313680  23.7686650  56.9773210  17.6034150  18.1598100
  57.0986030  17.5620630  19.1083920  56.5921720  18.4658300  18.0044830
  60.9401580  15.3801550  26.1761790  60.9574320  15.8310200  27.0203640
  60.6917160  14.4807190  26.3895230  55.9894710  19.9135290  17.5581400
  55.4211610  19.4653540  16.9317310  56.6983710  20.2728070  17.0246550
  64.3672330  12.7933730  32.0148170  64.6918100  12.0623390  32.5406150
  64.4028840  12.4747370  31.1129160  51.0663890  23.8147310  31.4348130
  50.6818680  23.1740980  32.0331090  51.3776080  24.5183430  32.0042860
  57.2161030  20.6623850  26.9156750  57.5831160  20.1882420  27.6618090
  57.0266090  21.5365420  27.2565090  50.0801520  15.4067540  23.0450220
  49.7948440  15.0423210  23.8828840  50.0180380  14.6748000  22.4313360
  55.0060400  19.7032490  29.2340960  54.7017470  20.5824470  29.4591320
  55.9606860  19.7632280  29.2698400  53.5342190  23.9093480  19.8307810
  52.7604450  23.3691100  19.6706530  54.2636820  23.3900090  19.4925570
  64.2930170  22.9058840  25.6234200  65.0129290  23.4014130  25.2330310
  64.0911990  22.2276730  24.9788070  59.7540110  14.2996800  19.7663590
  58.9404720  13.8009970  19.6908900  59.5602060  15.1395050  19.3499940
  59.6748970  22.9767900  31.5103200  59.6086280  22.0563570  31.2560790
  59.0454110  23.0743340  32.2247840  62.4688500  18.6716450  18.0625750
  63.3568120  18.9833680  17.8877090  62.4393590  17.7988700  17.6706330
  53.5779590  23.5773860  23.4686620  54.0958260  22.7742120  23.4143510
  53.1263610  23.5153000  24.3103450  58.4649090  24.8440140  18.7413920
  58.8064790  25.5882370  18.2457240  57.6361800  25.1571260  19.1038750
  51.0624130  20.5435230  30.3812320  50.7039070  21.2089080  30.9685660
  50.7678690  19.7118780  30.7524940  54.2637250  21.0019470  33.2651870
  53.9637390  21.1476650  32.3679690  55.0348490  20.4424760  33.1725260
  59.6065700  25.7988470  31.2607000  59.6210240  24.8669430  31.0425910
  58.8990800  25.8848230  31.8996770  64.7402770  19.9828290  17.5305610
  64.6566490  20.4142510  16.6802050  65.4596960  20.4426640  17.9632430
  65.8176910  22.4395810  30.6075580  65.0925100  23.0324590  30.4104970
  66.3452370  22.4319350  29.8088950  65.7690020  26.8370550  20.2587740
  65.1266180  26.1826170  20.5331460  65.3820680  27.2425640  19.4828410
  61.3476500  24.1655980  24.1059430  61.7000320  23.5684110  23.4460800
  60.4638830  23.8400210  24.2767680  57.4339780  24.9253670  21.5129840
  58.1210910  25.4722880  21.8937430  56.6472200  25.4694400  21.5479450
  49.5732180  20.5426490  17.0046920  50.4427030  20.8251290  17.2882840
  49.0822500  21.3562360  16.8895730  56.7366990  21.9299700  21.1255200
  57.1929770  22.7404950  21.3515390  56.3855200  21.6122840  21.9573690
  59.0399600  27.4406040  28.3547500  59.6841820  27.6465420  29.0320920
  59.4029040  26.6794440  27.9018350  52.6378770  12.2737350  21.5977720
  52.5093400  12.2655250  22.5462640  51.8140790  12.6120440  21.2468730
  60.3131680  25.4438390  27.0724950  60.9553910  24.7431550  27.1857120
  60.8381030  26.2236830  26.8921840  64.1587400  25.7287010  16.7964090
  63.9324980  25.0117450  17.3888730  63.7683600  25.4799450  15.9585840
  62.0869300  26.2433290  30.2761010  62.4225540  26.8299980  30.9538930
  61.1669640  26.1126000  30.5058800  49.9403430  29.7553870  17.5708550
  50.3001070  30.3543210  16.9165820  49.7995770  30.3013760  18.3443580
  49.6372700  14.0328470  31.0584420  48.9231220  14.2325390  31.6637030
  50.0567740  13.2568040  31.4299220  63.7403650  23.6458950  18.4578250
  63.4525350  24.1071640  19.2456130  64.5355820  23.1856720  18.7262470
  49.9245290  28.0208730  32.0450950  50.0336410  27.0803470  31.9046340
  49.2725850  28.2863480  31.3964680  57.9157880  26.2924620  33.4449070
  57.5954750  25.5733860  33.9894760  57.2416240  26.9679690  33.5185130
  55.9572050  27.1385070  18.3882220  55.9482150  27.8714760  17.7726730
  55.0370410  26.8916650  18.4809180  51.5578690  22.3599960  19.1328980
  50.9506640  23.0998860  19.1424280  52.0328040  22.4499320  18.3067180
  61.1311480  16.5250780  28.8085870  61.4992300  15.7045990  29.1365440
  60.2709680  16.5852670  29.2241520  64.4973510  15.4807720  19.6173430
  63.8686670  15.5853390  18.9031660  64.0025430  15.7004500  20.4067310
  58.9431650  27.2013310  17.0507410  59.0443630  26.9977300  16.1209390
  58.0433390  26.9471590  17.2555190  56.4657540  17.7593670  21.0331310
  55.7573690  18.2280010  21.4744920  56.7502020  17.1015680  21.6676500
  58.0913470  19.1790370  29.0323840  58.5898720  19.6536190  29.6975690
  58.2336420  18.2553890  29.2393870  60.4972970  14.4844330  22.4727100
  60.3740750  14.5030460  21.5236610  61.4457530  14.5323270  22.5925500
  57.5849760  29.7199630  21.7455080  57.8391260  29.6821020  20.8234450
  56.6362240  29.5932960  21.7383330  54.6692560  16.0678750  18.4082020
  55.5183090  16.5048900  18.3422210  54.3023830  16.3799010  19.2354080
  65.2980330  15.3958330  29.8752230  64.7953930  16.1363730  30.2146040
  66.1136990  15.7842330  29.5589020  63.5902340  20.6391510  23.3213590
  62.6492480  20.6541740  23.4961280  63.9046410  19.8527470  23.7673890
  53.5683980  22.3211110  16.8817550  54.3347250  22.2092470  17.4442980
  53.6458670  21.6249080  16.2294320  52.2630740  19.7536180  17.5650440
  52.3434330  18.8063690  17.6767840  53.1550490  20.0843060  17.6711100
  65.5927920  27.8100360  24.9967850  65.7175340  28.6331530  25.4691660
  66.4593480  27.5991090  24.6492000  53.0645450  29.9031570  24.6684980
  53.8007930  29.3547030  24.9393550  53.4486370  30.7687580  24.5290970
  49.9490930  25.9705140  20.5426490  49.0230710  26.2126280  20.5331900
  50.4147360  26.7979400  20.4211240  52.0703730  29.0877640  33.8570560
  52.8716460  29.4089690  34.2705960  51.5555550  28.7273220  34.5790470
  56.1747760  29.0761880  16.4910550  56.9676370  29.3650710  16.0392340
  55.6552110  28.6454050  15.8123030  60.9068360  25.1957510  33.8045970
  60.3006520  25.2189110  33.0641720  60.6022470  24.4640550  34.3413220
  62.3368730  28.9237800  32.4155380  63.2890480  28.8395820  32.3655620
  62.1896950  29.5879510  33.0889170  65.2277930  28.3032010  17.9147290
  64.9419440  27.8897150  17.1001470  65.0297480  29.2319720  17.7947810
  49.7901540  21.5751100  32.8006610  50.2940560  20.9958380  33.3722840
  49.0508960  21.8591330  33.3382980  56.6925160  24.2965290  16.3552900
  56.5875800  23.6817640  17.0814280  56.5249380  23.7731180  15.5715910
  56.8439480  22.9822090  32.3342130  56.0785150  23.5507090  32.2496800
  57.0255440  22.6898300  31.4410360  59.9327890  23.3585320  16.9594890
  59.3837990  23.8054620  17.6037630  60.5547150  22.8534570  17.4832560
  63.9862830  24.7127420  32.8917150  64.7272300  25.0503180  32.3884610
  63.2235510  24.8819480  32.3386920  51.8224620  19.7180690  33.6956680
  51.8629960  19.4194560  34.6041910  52.6770120  20.1188300  33.5364200
  55.6003010  22.3176240  18.8560190  56.0219430  22.1516110  19.6991580
  55.7253850  21.5076470  18.3615330  53.7630430  18.2972790  31.6631170
  53.2326890  17.8063740  31.0354510  54.4318500  18.7256990  31.1289100
  58.1130650  21.3413850  16.1037290  58.6336310  20.6262870  15.7378440
  58.7599050  21.9799720  16.4037800  62.6608490  22.7642250  31.4272360
  63.0749510  22.9187330  32.2762780  61.7259490  22.8897470  31.5898140
  63.1330660  20.1038410  33.4311510  63.7151430  19.3490730  33.3431990
  63.3092430  20.6345850  32.6542990  54.2502730  15.2635160  31.7428460
  54.1559600  14.6455910  31.0179330  53.6700120  15.9901450  31.5158370
  57.0164170  13.8208400  28.7755850  56.5681470  13.8432660  27.9301400
  56.3829370  13.4227420  29.3726150  57.4223720  22.7162730  29.3968290
  57.8411830  23.5595460  29.2244530  56.5032350  22.8534770  29.1675070
  59.7587620  20.4478910  30.7806130  59.8783830  19.8520050  31.5200970
  60.6181620  20.4848600  30.3607430  62.0975520  21.0016100  29.3568640
  61.5710740  21.5258720  28.7533780  62.4406860  21.6343490  29.9878370
  54.4961910  18.3909470  15.8018350  54.2950970  17.5276830  16.1631690
  54.3253960  18.3042830  14.8639950  55.2731140  29.0215740  30.5126020
  54.7352230  29.7461800  30.1934720  55.5265100  28.5446080  29.7223360
  56.5256390  16.9900260  32.0381950  57.1156080  16.6816110  32.7259770
  55.7076630  16.5180010  32.1941850  61.3449820  16.6066070  32.2714970
  60.6565340  15.9447610  32.2064960  62.0655840  16.1604340  32.7163430
  61.9750220  13.2017700  18.3305230  62.2552510  12.3585600  18.6864650
  61.2015950  13.4340810  18.8443980  53.2944710  15.4910090  15.7896230
  53.5970610  15.4977520  14.8815380  54.0339300  15.1407950  16.2863890
  58.1293350  30.2566950  30.7712670  58.0552050  31.1602090  31.0785040
  57.2272190  29.9378850  30.7434740  56.5129640  14.4344710  16.7752430
  56.1651640  13.7568700  16.1954880  56.7142410  13.9734220  17.5895820
  58.6778680  29.4225460  18.3939030  59.5729470  29.7610430  18.4157790
  58.7096310  28.7004870  17.7663310  52.3174840  24.7952510  16.6226030
  52.7549710  25.3382180  17.2783610  52.8022570  23.9699460  16.6322370
  49.5320640  27.5841540  24.0746290  49.8623650  26.7162600  23.8424930
  49.9611640  27.7900060  24.9051250  54.1282560  25.9150550  21.7348260
  53.8278100  25.7915520  22.6352170  54.0220050  25.0559140  21.3263990
  50.0210850  28.4512130  26.8127920  49.5841840  28.6312930  27.6452070
  50.5888530  29.2086750  26.6709640  65.6573030  27.9529130  31.1005230
  65.0575020  28.0121690  30.3569150  65.7866930  27.0134110  31.2302080
  66.8974480  25.6946950  16.4374940  66.0667440  25.7623600  16.9082170
  67.0746310  26.5851070  16.1341800  66.3530940  22.4394430  18.9409140
  67.1149850  23.0091080  19.0468830  66.3685310  21.8721630  19.7117450
  49.8535280  20.9632360  23.1716800  49.1984120  20.6944000  22.5276500
  50.6913230  20.8536840  22.7218780  67.3590910  23.2944530  23.7851070
  67.7299740  22.5111850  23.3787040  67.9992840  23.9833630  23.6068370
  64.3424670  24.6781110  29.1981390  63.5284510  25.1078270  29.4607180
  64.7498870  25.2899520  28.5850440  66.4050110  22.7328800  16.0981660
  66.6798950  23.6407680  15.9700880  66.2160850  22.6691330  17.0343650
  62.8025720  15.7573650  17.3935290  63.2210600  15.5704630  16.5531950
  62.4961780  14.9052700  17.7038220  66.3015450  20.6697790  21.0911090
  65.9259050  19.9025720  20.6592380  65.5718570  21.0520490  21.5786020
  50.8911210  21.3484930  27.7120140  51.2584250  21.2612330  28.5916160
  50.3222030  20.5851480  27.6127000  65.6915070  19.8169310  30.7250610
  65.4601160  19.5882060  29.8248560  65.9519620  20.7368860  30.6795500
  50.4427210  18.2594020  31.6178560  49.5483260  18.2260780  31.9572270
  50.9824760  18.4580810  32.3829810  64.1303140  15.0425740  33.5030310
  65.0073320  15.0509140  33.8864310  64.1423980  14.3056580  32.8922660
  49.0673360  18.1731290  19.1142130  48.1637440  18.4361490  18.9393790
  49.5513980  18.4442460  18.3342090  65.5766410  18.8955280  24.3918330
  66.1003890  18.4017930  23.7608500  66.1625830  19.0305640  25.1365900
  65.7556130  18.9795150  27.9137880  64.8058840  18.9458690  28.0282870
  65.9369140  19.8895260  27.6787650  51.6100570  17.2296830  17.0236510
  52.3192270  16.8080050  16.5383790  50.8940510  17.2972060  16.3919860
  51.2574730  13.2836160  16.0639160  51.9802860  13.8245100  16.3820380
  51.5299250  13.0099580  15.1880700  65.0666380  18.1528630  20.3310740
  65.5625500  17.9199500  21.1159620  64.8682450  17.3140470  19.9148380
  50.9466920  12.5342350  25.9661780  51.5943110  11.9839730  25.5256940
  51.3668760  12.7885500  26.7877590  66.4953540  16.7889580  22.8648420
  66.3852820  16.6345620  23.8030690  67.2561130  16.2610520  22.6223830
  64.8419260  12.7283710  29.3231420  65.4791480  13.3417850  29.6890610
  64.9894150  12.7644370  28.3780650  67.3843810  14.6197500  16.1054560
  68.3093120  14.4878680  15.8972850  67.3619600  14.6990320  17.0591010
  67.4582300  15.3908160  18.7311270  66.6633800  15.3253280  19.2604180
  67.6625580  16.3258800  18.7196620  64.4000720  29.4299710  22.7249660
  64.9959790  29.1084280  22.0484080  64.6578870  28.9571530  23.5162930
  50.6998920  12.6898020  28.7087100  50.3513740  13.1461840  29.4745280
  50.3686620  11.7955150  28.7909530  52.3063290  25.8617620  32.8740290
  52.2632920  25.4910530  33.7554750  52.4374300  26.7995190  33.0142110
  56.0069320  27.4177210  28.4750010  55.7660680  27.6851770  27.5880530
  56.9471960  27.5882940  28.5300870  58.2123740  13.8809900  32.2306520
  58.1512630  14.4731730  32.9801930  59.1524120  13.7735860  32.0856780
  60.8498300  13.5379960  31.8698810  61.4638710  13.8559250  31.2079890
  61.3947860  13.0528550  32.4894670  67.2673480  29.4371590  29.2760650
  66.7731760  29.8340460  28.5587780  66.6586770  28.8120800  29.6697930
  51.3719560  12.2174220  31.9837870  51.9202550  12.0362270  31.2203980
  51.4374870  11.4268330  32.5194180  52.1451320  28.8079870  29.9938070
  51.5511640  28.6764570  30.7328110  52.1375160  27.9718010  29.5280170
  61.5906340  12.1012100  28.1968100  60.7166180  12.4347210  27.9941030
  61.4817090  11.6285280  29.0219970  62.4978320  14.3082970  29.5809820
  62.1691680  13.4934730  29.2011550  63.4460620  14.2652780  29.4575510
  64.9512930  30.0795010  26.5547390  64.4915900  30.8310820  26.1805410
  64.3225390  29.3601480  26.4962190  51.7763550  26.1738250  28.9446110
  51.0497610  25.5543540  28.8772060  51.8372700  26.5678860  28.0744190
  55.3808650  28.3883250  25.7295520  55.8973670  27.7770610  25.2043780
  56.0306030  28.8912030  26.2206530  58.1204150  29.2791740  26.5564500
  58.4081960  29.0246040  25.6797510  58.6327370  28.7269100  27.1470070
  59.3381160  13.0181940  27.1361010  58.5552950  13.4927440  27.4157770
  59.0444090  12.1136770  27.0274190  63.8902230  13.7205040  25.1810100
  64.3310320  13.6650140  24.3331700  63.6209820  14.6363050  25.2520280
  65.7540800  13.3520280  23.1918920  65.6929200  12.4081500  23.0449940
  66.5332830  13.4600370  23.7372380  50.0593550  29.4912640  22.1542870
  49.8915590  28.8583320  22.8524760  49.1928060  29.6972040  21.8037060
  50.6821570  13.3229420  19.6574730  51.4400930  13.4358300  19.0838760
  50.2198740  14.1598620  19.6118160  57.2235380  15.4368690  22.6477040
  56.4109890  15.0625580  22.3072920  57.7277020  14.6813770  22.9498230
  61.7260360  12.1011140  23.8860110  62.3289730  12.6731350  24.3608630
  60.9853350  12.6650580  23.6634010  64.8694960  12.5032700  19.1600390
  65.0645590  13.4016150  19.4267820  64.0824830  12.2719780  19.6533340
  51.6656250  28.1845870  19.5993010  51.1403870  28.5653900  18.8954970
  51.5900830  28.8096640  20.3202720  53.0546720  13.8493470  18.1976700
  53.5839480  13.0623270  18.0684650  53.6875040  14.5284660  18.4312230
  55.2484560  13.5868610  21.2522090  54.6187300  12.8855920  21.4192220
  54.7089700  14.3472740  21.0355250  58.1876510  30.2007840  33.9232700
  59.1143820  29.9652110  33.9668660  58.1726940  31.0279840  33.4418730
  66.4221570  29.7433410  20.9206950  66.5973760  29.0571150  20.2767870
  65.7243140  30.2680460  20.5283620  55.3740120  12.8652590  33.6874580
  55.0924390  13.3686190  32.9235400  55.7559820  12.0674340  33.3216710
  54.2649220  30.1328250  18.4742260  54.9968040  29.8487530  17.9266150
  54.5242890  29.8941530  19.3641640  53.4264010  26.2492980  18.4788590
  52.7972890  26.7178080  19.0274420  53.5411840  25.4042200  18.9134780
  61.9755580  12.2806170  34.2655050  61.8621030  12.6000780  35.1606570
  62.7925320  12.6818680  33.9692330  64.7554070  29.4277700  33.7473740
  65.5479390  28.9326930  33.5399700  65.0487220  30.1067840  34.3549350
  60.8813730  20.2998640   4.6289790  60.8007780  19.3853250   4.3581500
  60.4678150  20.7965710   3.9229500  59.0131770  22.0777660   6.5099060
  58.2373870  21.5978100   6.7997630  59.6644700  21.3983310   6.3355220
  53.0297600  22.3897470   7.3874820  52.1982480  22.1346180   7.7871330
  53.6378580  22.4608240   8.1232740  63.0339200  26.4837850   5.2898190
  62.5720730  25.7125090   5.6185360  63.8464750  26.5103920   5.7950640
  53.0098860  26.4237560   7.5832840  53.3126900  25.5335300   7.4043060
  53.7542450  26.9807780   7.3555090  49.4022560  19.9505010   7.0556910
  49.9738670  19.1827210   7.0560550  49.4024100  20.2493770   6.1463520
  59.2602510  28.7695860   4.9102180  58.6413950  29.2253360   4.3396620
  60.1154290  28.9247320   4.5091880  58.4540760  24.7534850   6.5169220
  58.3849040  23.8124790   6.3558350  59.2160620  24.8436260   7.0891790
  50.6447430  15.3589370   8.8425840  50.4650270  14.4615120   9.1228600
  50.2427510  15.9061240   9.5172790  59.4845930  17.5605230   6.7438150
  59.8610750  16.6877110   6.6311820  59.3865440  17.8963930   5.8528590
  53.6150940  15.9330860   2.2055590  53.7217690  16.8334590   2.5124350
  52.7043300  15.8848830   1.9150240  63.2670050  15.0555670   3.6766490
  64.0879670  14.5652240   3.7191970  63.3004130  15.6453330   4.4298330
  51.2634100  17.8549870   7.4508180  51.9444210  18.1188240   8.0695580
  50.9482150  17.0150740   7.7846190  55.4558670  18.9017230   6.5380770
  55.9636890  19.3998200   7.1785790  55.9871910  18.1252430   6.3620130
  67.5569600  17.0722420  10.2410120  66.8521770  17.4604130   9.7225230
  67.8227520  17.7672710  10.8431050  53.7394770  13.5415790  10.8044190
  53.7413210  14.0588180   9.9990090  52.9099080  13.0645970  10.7814120
  60.1265860  23.6535100   2.3034090  59.5083130  24.1184550   1.7396810
  60.6389110  24.3462580   2.7203600  54.9897620  23.1810970   8.9817690
  54.6567000  23.8079890   9.6238760  55.1664300  23.7072850   8.2019360
  63.5031530  16.9956050   6.4494030  62.7987100  17.2840940   7.0297140
  63.8643690  17.8056160   6.0893590  53.4210100  15.2525750   8.8114640
  53.7626910  16.0967800   8.5168510  52.4825910  15.4009490   8.9279980
  54.2016720  25.1491770  10.7966870  54.8190720  25.8242850  10.5151320
  53.3409840  25.5579750  10.7054370  65.1194310  26.6131180   8.7121510
  64.4357830  27.2830290   8.7038180  65.6588600  26.8111830   7.9466370
  66.5718450  16.4410840   6.8403240  65.6243360  16.4749820   6.9718670
  66.8968440  17.2549790   7.2252600  57.1037990  12.7408020   5.1359230
  57.4112970  12.1854910   4.4194730  56.1738690  12.8752480   4.9532220
  62.6553050  28.4575310   7.4266690  62.6680210  28.0537600   6.5588950
  62.1028270  29.2322600   7.3228120  63.9498470  25.1791530   2.5156860
  63.8394800  24.2365860   2.6406280  63.9466720  25.5407170   3.4019620
  62.0538490  23.3605150   8.7549300  62.4707280  23.1465260   7.9202760
  62.7778310  23.6177940   9.3257920  59.4918750  20.8056850   1.8719350
  58.5648030  20.7394230   2.1007820  59.6443570  21.7436980   1.7574590
  66.0000590  21.7592370   8.8465540  65.1719220  21.8285460   8.3715670
  66.5951070  22.3446680   8.3781370  63.5216040  22.3677150   2.3754600
  62.9028460  22.0296700   1.7280900  63.5040490  21.7236910   3.0833790
  62.9642600  18.5461690   9.7920410  62.5513780  19.3715400  10.0460400
  62.2318550  17.9606730   9.5996770  55.0975390  21.3321590   4.6539080
  54.6932390  20.6198840   4.1584980  55.1838510  20.9874830   5.5427120
  55.5657090  25.0189150   6.8178290  55.2685380  24.4134620   6.1386070
  56.5156910  25.0566460   6.7067650  53.8104010  18.1064800   8.4338120
  54.3618600  18.2160140   7.6591370  54.3247520  18.4802400   9.1493350
  63.6542700  28.5921020  10.4801390  63.1773260  29.3993210  10.2874000
  62.9704490  27.9399350  10.6327600  54.6575520  24.7570840  13.4686090
  53.7604050  24.9810810  13.7159490  54.6828390  24.8805780  12.5197490
  53.4846740  21.6284160  12.0443460  53.3454510  22.5006960  12.4130860
  52.6028100  21.2856970  11.8991400  59.8076120  26.5460030   3.3508590
  60.2472030  27.2884360   2.9363980  59.7463010  26.7886600   4.2747550
  55.2827090  27.5705860  14.2528610  55.2542520  27.9748810  13.3857040
  55.1192060  26.6416220  14.0900210  51.7980020  20.2266570   2.1545730
  51.6777620  20.9528660   1.5427000  51.4880910  19.4569480   1.6773640
  67.2341910  28.3532960  15.5492780  67.7101630  28.8315850  16.2281860
  67.8549070  28.2850450  14.8238280  49.4365390  23.3981710   7.9614370
  49.5145810  23.5330480   7.0170090  50.0507070  22.6897600   8.1542490
  50.6813020  25.0981900   4.3720550  50.2741100  25.2396490   3.5174150
  51.5726030  24.8142060   4.1691760  66.6375160  25.5445810  12.7092790
  66.7638220  25.3057690  11.7909970  66.6796540  24.7130350  13.1814870
  60.4991900  29.2473810  11.2787600  61.0136570  29.1581820  12.0810030
  59.6560980  29.5933510  11.5715510  54.9534680  29.3127680   2.4843220
  54.7777160  28.3963220   2.2711020  54.0990420  29.6714970   2.7241020
  61.7422360  28.6679420   3.3418090  62.1979310  27.8868800   3.6556710
  62.0814880  29.3786240   3.8859270  66.4899170  17.5978270  13.6742530
  65.8743440  18.1057940  13.1457990  66.1695590  16.6976600  13.6168470
  49.4924910  24.4395880  10.5008830  49.6555950  23.9701240   9.6828200
  49.9577360  23.9319440  11.1657670  54.2643680  13.5701640   5.5369400
  53.8211830  14.3511180   5.2053920  54.8228670  13.8931530   6.2440340
  58.5513490  16.4370160  11.1404720  58.0892860  16.6453180  11.9524660
  58.1491600  15.6229510  10.8375390  63.5518000  17.6579110  12.2701380
  62.7011590  17.3584860  12.5910450  63.3919790  17.9021120  11.3585200
  60.6467710  19.1580860  14.3700170  60.9721120  18.3244610  14.0302400
  61.4348040  19.6809380  14.5178500  56.3019580  14.1148970   7.3959000
  56.5991910  15.0211800   7.3151020  56.8505140  13.6267750   6.7818570
  54.0557900  18.6935210   3.2650650  53.8298820  18.4772380   4.1697270
  53.2750430  19.1263670   2.9196620  56.4957110  19.5920790  13.9310920
  56.4000710  18.6515520  13.7811320  57.3389090  19.8135860  13.5358990
  59.8920530  17.3362120   3.8944580  60.2850100  17.6534320   3.0813270
  60.2537380  16.4574000   4.0089100  51.6267650  16.0034460  12.0844700
  51.2331040  16.8509670  12.2917480  50.9386050  15.3660830  12.2753340
  58.2012700  16.0869430  15.1541440  57.5111020  15.8941630  15.7887530
  58.9445000  16.3704070  15.6865740  48.9284700  13.9262920   6.1174780
  48.6397750  14.4965780   6.8299760  49.6730460  13.4467370   6.4806010
  60.4775670  19.9267870   7.9895360  59.7456790  20.4354680   8.3385460
  60.0800010  19.1097850   7.6884140  56.9153060  16.6022070   6.3947850
  56.9189120  16.1612020   5.5452390  57.8104180  16.9239400   6.5019670
  52.7655440  16.4848560   5.3542060  52.4255490  16.9623790   6.1109110
  52.0032760  16.0313680   4.9943160  60.9401580  15.3801550   7.4018300
  60.9574320  15.8310200   8.2460150  60.6917160  14.4807190   7.6151740
  64.3672330  12.7933730  13.2404680  64.6918100  12.0623390  13.7662660
  64.4028840  12.4747370  12.3385670  51.0663890  23.8147310  12.6604640
  50.6818680  23.1740980  13.2587600  51.3776080  24.5183430  13.2299370
  57.2161030  20.6623850   8.1413260  57.5831160  20.1882420   8.8874600
  57.0266090  21.5365420   8.4821600  50.0801520  15.4067540   4.2706730
  49.7948440  15.0423210   5.1085350  50.0180380  14.6748000   3.6569870
  55.0060400  19.7032490  10.4597470  54.7017470  20.5824470  10.6847830
  55.9606860  19.7632280  10.4954910  64.2930170  22.9058840   6.8490710
  65.0129290  23.4014130   6.4586820  64.0911990  22.2276730   6.2044580
  59.6748970  22.9767900  12.7359710  59.6086280  22.0563570  12.4817300
  59.0454110  23.0743340  13.4504350  53.5779590  23.5773860   4.6943130
  54.0958260  22.7742120   4.6400020  53.1263610  23.5153000   5.5359960
  51.0624130  20.5435230  11.6068830  50.7039070  21.2089080  12.1942170
  50.7678690  19.7118780  11.9781450  54.2637250  21.0019470  14.4908380
  53.9637390  21.1476650  13.5936200  55.0348490  20.4424760  14.3981770
  59.6065700  25.7988470  12.4863510  59.6210240  24.8669430  12.2682420
  58.8990800  25.8848230  13.1253280  65.8176910  22.4395810  11.8332090
  65.0925100  23.0324590  11.6361480  66.3452370  22.4319350  11.0345460
  61.3476500  24.1655980   5.3315940  61.7000320  23.5684110   4.6717310
  60.4638830  23.8400210   5.5024190  57.4339780  24.9253670   2.7386350
  58.1210910  25.4722880   3.1193940  56.6472200  25.4694400   2.7735960
  56.7366990  21.9299700   2.3511710  57.1929770  22.7404950   2.5771900
  56.3855200  21.6122840   3.1830200  59.0399600  27.4406040   9.5804010
  59.6841820  27.6465420  10.2577430  59.4029040  26.6794440   9.1274860
  52.6378770  12.2737350   2.8234230  52.5093400  12.2655250   3.7719150
  51.8140790  12.6120440   2.4725240  60.3131680  25.4438390   8.2981460
  60.9553910  24.7431550   8.4113630  60.8381030  26.2236830   8.1178350
  62.0869300  26.2433290  11.5017520  62.4225540  26.8299980  12.1795440
  61.1669640  26.1126000  11.7315310  49.6372700  14.0328470  12.2840930
  48.9231220  14.2325390  12.8893540  50.0567740  13.2568040  12.6555730
  49.9245290  28.0208730  13.2707460  50.0336410  27.0803470  13.1302850
  49.2725850  28.2863480  12.6221190  57.9157880  26.2924620  14.6705580
  57.5954750  25.5733860  15.2151270  57.2416240  26.9679690  14.7441640
  61.1311480  16.5250780  10.0342380  61.4992300  15.7045990  10.3621950
  60.2709680  16.5852670  10.4498030  56.4657540  17.7593670   2.2587820
  55.7573690  18.2280010   2.7001430  56.7502020  17.1015680   2.8933010
  58.0913470  19.1790370  10.2580350  58.5898720  19.6536190  10.9232200
  58.2336420  18.2553890  10.4650380  60.4972970  14.4844330   3.6983610
  60.3740750  14.5030460   2.7493120  61.4457530  14.5323270   3.8182010
  57.5849760  29.7199630   2.9711590  57.8391260  29.6821020   2.0490960
  56.6362240  29.5932960   2.9639840  65.2980330  15.3958330  11.1008740
  64.7953930  16.1363730  11.4402550  66.1136990  15.7842330  10.7845530
  63.5902340  20.6391510   4.5470100  62.6492480  20.6541740   4.7217790
  63.9046410  19.8527470   4.9930400  65.5927920  27.8100360   6.2224360
  65.7175340  28.6331530   6.6948170  66.4593480  27.5991090   5.8748510
  53.0645450  29.9031570   5.8941490  53.8007930  29.3547030   6.1650060
  53.4486370  30.7687580   5.7547480  49.9490930  25.9705140   1.7683000
  49.0230710  26.2126280   1.7588410  50.4147360  26.7979400   1.6467750
  52.0703730  29.0877640  15.0827070  52.8716460  29.4089690  15.4962470
  51.5555550  28.7273220  15.8046980  60.9068360  25.1957510  15.0302480
  60.3006520  25.2189110  14.2898230  60.6022470  24.4640550  15.5669730
  62.3368730  28.9237800  13.6411890  63.2890480  28.8395820  13.5912130
  62.1896950  29.5879510  14.3145680  49.7901540  21.5751100  14.0263120
  50.2940560  20.9958380  14.5979350  49.0508960  21.8591330  14.5639490
  56.8439480  22.9822090  13.5598640  56.0785150  23.5507090  13.4753310
  57.0255440  22.6898300  12.6666870  63.9862830  24.7127420  14.1173660
  64.7272300  25.0503180  13.6141120  63.2235510  24.8819480  13.5643430
  51.8224620  19.7180690  14.9213190  51.8629960  19.4194560  15.8298420
  52.6770120  20.1188300  14.7620710  53.7630430  18.2972790  12.8887680
  53.2326890  17.8063740  12.2611020  54.4318500  18.7256990  12.3545610
  62.6608490  22.7642250  12.6528870  63.0749510  22.9187330  13.5019290
  61.7259490  22.8897470  12.8154650  63.1330660  20.1038410  14.6568020
  63.7151430  19.3490730  14.5688500  63.3092430  20.6345850  13.8799500
  54.2502730  15.2635160  12.9684970  54.1559600  14.6455910  12.2435840
  53.6700120  15.9901450  12.7414880  57.0164170  13.8208400  10.0012360
  56.5681470  13.8432660   9.1557910  56.3829370  13.4227420  10.5982660
  57.4223720  22.7162730  10.6224800  57.8411830  23.5595460  10.4501040
  56.5032350  22.8534770  10.3931580  59.7587620  20.4478910  12.0062640
  59.8783830  19.8520050  12.7457480  60.6181620  20.4848600  11.5863940
  62.0975520  21.0016100  10.5825150  61.5710740  21.5258720   9.9790290
  62.4406860  21.6343490  11.2134880  55.2731140  29.0215740  11.7382530
  54.7352230  29.7461800  11.4191230  55.5265100  28.5446080  10.9479870
  56.5256390  16.9900260  13.2638460  57.1156080  16.6816110  13.9516280
  55.7076630  16.5180010  13.4198360  61.3449820  16.6066070  13.4971480
  60.6565340  15.9447610  13.4321470  62.0655840  16.1604340  13.9419940
  58.1293350  30.2566950  11.9969180  58.0552050  31.1602090  12.3041550
  57.2272190  29.9378850  11.9691250  49.5320640  27.5841540   5.3002800
  49.8623650  26.7162600   5.0681440  49.9611640  27.7900060   6.1307760
  54.1282560  25.9150550   2.9604770  53.8278100  25.7915520   3.8608680
  54.0220050  25.0559140   2.5520500  50.0210850  28.4512130   8.0384430
  49.5841840  28.6312930   8.8708580  50.5888530  29.2086750   7.8966150
  65.6573030  27.9529130  12.3261740  65.0575020  28.0121690  11.5825660
  65.7866930  27.0134110  12.4558590  49.8535280  20.9632360   4.3973310
  49.1984120  20.6944000   3.7533010  50.6913230  20.8536840   3.9475290
  67.3590910  23.2944530   5.0107580  67.7299740  22.5111850   4.6043550
  67.9992840  23.9833630   4.8324880  64.3424670  24.6781110  10.4237900
  63.5284510  25.1078270  10.6863690  64.7498870  25.2899520   9.8106950
  66.3015450  20.6697790   2.3167600  65.9259050  19.9025720   1.8848890
  65.5718570  21.0520490   2.8042530  50.8911210  21.3484930   8.9376650
  51.2584250  21.2612330   9.8172670  50.3222030  20.5851480   8.8383510
  65.6915070  19.8169310  11.9507120  65.4601160  19.5882060  11.0505070
  65.9519620  20.7368860  11.9052010  50.4427210  18.2594020  12.8435070
  49.5483260  18.2260780  13.1828780  50.9824760  18.4580810  13.6086320
  64.1303140  15.0425740  14.7286820  65.0073320  15.0509140  15.1120820
  64.1423980  14.3056580  14.1179170  65.5766410  18.8955280   5.6174840
  66.1003890  18.4017930   4.9865010  66.1625830  19.0305640   6.3622410
  65.7556130  18.9795150   9.1394390  64.8058840  18.9458690   9.2539380
  65.9369140  19.8895260   8.9044160  50.9466920  12.5342350   7.1918290
  51.5943110  11.9839730   6.7513450  51.3668760  12.7885500   8.0134100
  66.4953540  16.7889580   4.0904930  66.3852820  16.6345620   5.0287200
  67.2561130  16.2610520   3.8480340  64.8419260  12.7283710  10.5487930
  65.4791480  13.3417850  10.9147120  64.9894150  12.7644370   9.6037160
  64.4000720  29.4299710   3.9506170  64.9959790  29.1084280   3.2740590
  64.6578870  28.9571530   4.7419440  50.6998920  12.6898020   9.9343610
  50.3513740  13.1461840  10.7001790  50.3686620  11.7955150  10.0166040
  52.3063290  25.8617620  14.0996800  52.2632920  25.4910530  14.9811260
  52.4374300  26.7995190  14.2398620  56.0069320  27.4177210   9.7006520
  55.7660680  27.6851770   8.8137040  56.9471960  27.5882940   9.7557380
  58.2123740  13.8809900  13.4563030  58.1512630  14.4731730  14.2058440
  59.1524120  13.7735860  13.3113290  60.8498300  13.5379960  13.0955320
  61.4638710  13.8559250  12.4336400  61.3947860  13.0528550  13.7151180
  67.2673480  29.4371590  10.5017160  66.7731760  29.8340460   9.7844290
  66.6586770  28.8120800  10.8954440  51.3719560  12.2174220  13.2094380
  51.9202550  12.0362270  12.4460490  51.4374870  11.4268330  13.7450690
  52.1451320  28.8079870  11.2194580  51.5511640  28.6764570  11.9584620
  52.1375160  27.9718010  10.7536680  61.5906340  12.1012100   9.4224610
  60.7166180  12.4347210   9.2197540  61.4817090  11.6285280  10.2476480
  62.4978320  14.3082970  10.8066330  62.1691680  13.4934730  10.4268060
  63.4460620  14.2652780  10.6832020  64.9512930  30.0795010   7.7803900
  64.4915900  30.8310820   7.4061920  64.3225390  29.3601480   7.7218700
  51.7763550  26.1738250  10.1702620  51.0497610  25.5543540  10.1028570
  51.8372700  26.5678860   9.3000700  55.3808650  28.3883250   6.9552030
  55.8973670  27.7770610   6.4300290  56.0306030  28.8912030   7.4463040
  58.1204150  29.2791740   7.7821010  58.4081960  29.0246040   6.9054020
  58.6327370  28.7269100   8.3726580  59.3381160  13.0181940   8.3617520
  58.5552950  13.4927440   8.6414280  59.0444090  12.1136770   8.2530700
  63.8902230  13.7205040   6.4066610  64.3310320  13.6650140   5.5588210
  63.6209820  14.6363050   6.4776790  65.7540800  13.3520280   4.4175430
  65.6929200  12.4081500   4.2706450  66.5332830  13.4600370   4.9628890
  50.0593550  29.4912640   3.3799380  49.8915590  28.8583320   4.0781270
  49.1928060  29.6972040   3.0293570  57.2235380  15.4368690   3.8733550
  56.4109890  15.0625580   3.5329430  57.7277020  14.6813770   4.1754740
  61.7260360  12.1011140   5.1116620  62.3289730  12.6731350   5.5865140
  60.9853350  12.6650580   4.8890520  55.2484560  13.5868610   2.4778600
  54.6187300  12.8855920   2.6448730  54.7089700  14.3472740   2.2611760
  58.1876510  30.2007840  15.1489210  59.1143820  29.9652110  15.1925170
  58.1726940  31.0279840  14.6675240  66.4221570  29.7433410   2.1463460
  66.5973760  29.0571150   1.5024380  65.7243140  30.2680460   1.7540130
  55.3740120  12.8652590  14.9131090  55.0924390  13.3686190  14.1491910
  55.7559820  12.0674340  14.5473220  61.9755580  12.2806170  15.4911560
  61.8621030  12.6000780  16.3863080  62.7925320  12.6818680  15.1948840
  64.7554070  29.4277700  14.9730250  65.5479390  28.9326930  14.7656210
  65.0487220  30.1067840  15.5805860  59.0131770   3.3034170  81.6073020
  58.2373870   2.8234610  81.8971590  59.6644700   2.6239820  81.4329180
  53.0297600   3.6153980  82.4848780  52.1982480   3.3602690  82.8845290
  53.6378580   3.6864750  83.2206700  63.0339200   7.7094360  80.3872150
  62.5720730   6.9381600  80.7159320  63.8464750   7.7360430  80.8924600
  53.0098860   7.6494070  82.6806800  53.3126900   6.7591810  82.5017020
  53.7542450   8.2064290  82.4529050  59.2602510   9.9952370  80.0076140
  58.6413950  10.4509870  79.4370580  60.1154290  10.1503830  79.6065840
  58.4540760   5.9791360  81.6143180  58.3849040   5.0381300  81.4532310
  59.2160620   6.0692770  82.1865750  60.1265860   4.8791610  77.4008050
  59.5083130   5.3441060  76.8370770  60.6389110   5.5719090  77.8177560
  54.9897620   4.4067480  84.0791650  54.6567000   5.0336400  84.7212720
  55.1664300   4.9329360  83.2993320  54.2016720   6.3748280  85.8940830
  54.8190720   7.0499360  85.6125280  53.3409840   6.7836260  85.8028330
  49.4949060   5.5648140  74.7747680  49.1177040   6.0535240  74.0432580
  49.7522130   6.2373420  75.4054210  65.1194310   7.8387690  83.8095470
  64.4357830   8.5086800  83.8012140  65.6588600   8.0368340  83.0440330
  62.6553050   9.6831820  82.5240650  62.6680210   9.2794110  81.6562910
  62.1028270  10.4579110  82.4202080  63.9498470   6.4048040  77.6130820
  63.8394800   5.4622370  77.7380240  63.9466720   6.7663680  78.4993580
  62.0538490   4.5861660  83.8523260  62.4707280   4.3721770  83.0176720
  62.7778310   4.8434450  84.4231880  59.4918750   2.0313360  76.9693310
  58.5648030   1.9650740  77.1981780  59.6443570   2.9693490  76.8548550
  66.0000590   2.9848880  83.9439500  65.1719220   3.0541970  83.4689630
  66.5951070   3.5703190  83.4755330  63.5216040   3.5933660  77.4728560
  62.9028460   3.2553210  76.8254860  63.5040490   2.9493420  78.1807750
  55.0975390   2.5578100  79.7513040  54.6932390   1.8455350  79.2558940
  55.1838510   2.2131340  80.6401080  55.5657090   6.2445660  81.9152250
  55.2685380   5.6391130  81.2360030  56.5156910   6.2822970  81.8041610
  63.6542700   9.8177530  85.5775350  63.1773260  10.6249720  85.3847960
  62.9704490   9.1655860  85.7301560  61.6980740   2.8320470  74.4801310
  62.1374020   1.9942900  74.3339130  62.4109160   3.4649870  74.5665450
  59.8076120   7.7716540  78.4482550  60.2472030   8.5140870  78.0337940
  59.7463010   8.0143110  79.3721510  49.4365390   4.6238220  83.0588330
  49.5145810   4.7586990  82.1144050  50.0507070   3.9154110  83.2516450
  50.6813020   6.3238410  79.4694510  50.2741100   6.4653000  78.6148110
  51.5726030   6.0398570  79.2665720  62.4746300  10.7585660  75.8045560
  62.3147440  10.4688600  76.7027390  62.3093010   9.9825790  75.2690790
  54.9534680  10.5384190  77.5817180  54.7777160   9.6219730  77.3684980
  54.0990420  10.8971480  77.8214980  62.1772430   8.2673220  74.3643560
  61.4837590   8.2650510  73.7045840  62.9195290   7.8432540  73.9337730
  61.7422360   9.8935930  78.4392050  62.1979310   9.1125310  78.7530670
  62.0814880  10.6042750  78.9833230  49.4924910   5.6652390  85.5982790
  49.6555950   5.1957750  84.7802160  49.9577360   5.1575950  86.2631630
  53.5342190   5.1349990  76.1538280  52.7604450   4.5947610  75.9937000
  54.2636820   4.6156600  75.8156040  64.2930170   4.1315350  81.9464670
  65.0129290   4.6270640  81.5560780  64.0911990   3.4533240  81.3018540
  53.5779590   4.8030370  79.7917090  54.0958260   3.9998630  79.7373980
  53.1263610   4.7409510  80.6333920  58.4649090   6.0696650  75.0644390
  58.8064790   6.8138880  74.5687710  57.6361800   6.3827770  75.4269220
  65.7690020   8.0627060  76.5818210  65.1266180   7.4082680  76.8561930
  65.3820680   8.4682150  75.8058880  61.3476500   5.3912490  80.4289900
  61.7000320   4.7940620  79.7691270  60.4638830   5.0656720  80.5998150
  57.4339780   6.1510180  77.8360310  58.1210910   6.6979390  78.2167900
  56.6472200   6.6950910  77.8709920  49.5732180   1.7683000  73.3277390
  50.4427030   2.0507800  73.6113310  49.0822500   2.5818870  73.2126200
  56.7366990   3.1556210  77.4485670  57.1929770   3.9661460  77.6745860
  56.3855200   2.8379350  78.2804160  59.0399600   8.6662550  84.6777970
  59.6841820   8.8721930  85.3551390  59.4029040   7.9050950  84.2248820
  60.3131680   6.6694900  83.3955420  60.9553910   5.9688060  83.5087590
  60.8381030   7.4493340  83.2152310  64.1587400   6.9543520  73.1194560
  63.9324980   6.2373960  73.7119200  63.7683600   6.7055960  72.2816310
  49.9403430  10.9810380  73.8939020  50.3001070  11.5799720  73.2396290
  49.7995770  11.5270270  74.6674050  63.7403650   4.8715460  74.7808720
  63.4525350   5.3328150  75.5686600  64.5355820   4.4113230  75.0492940
  55.9572050   8.3641580  74.7112690  55.9482150   9.0971270  74.0957200
  55.0370410   8.1173160  74.8039650  51.5578690   3.5856470  75.4559450
  50.9506640   4.3255370  75.4654750  52.0328040   3.6755830  74.6297650
  58.9431650   8.4269820  73.3737880  59.0443630   8.2233810  72.4439860
  58.0433390   8.1728100  73.5785660  57.5849760  10.9456140  78.0685550
  57.8391260  10.9077530  77.1464920  56.6362240  10.8189470  78.0613800
  53.5683980   3.5467620  73.2048020  54.3347250   3.4348980  73.7673450
  53.6458670   2.8505590  72.5524790  65.5927920   9.0356870  81.3198320
  65.7175340   9.8588040  81.7922130  66.4593480   8.8247600  80.9722470
  53.0645450  11.1288080  80.9915450  53.8007930  10.5803540  81.2624020
  53.4486370  11.9944090  80.8521440  49.9490930   7.1961650  76.8656960
  49.0230710   7.4382790  76.8562370  50.4147360   8.0235910  76.7441710
  56.1747760  10.3018390  72.8141020  56.9676370  10.5907220  72.3622810
  55.6552110   9.8710560  72.1353500  65.2277930   9.5288520  74.2377760
  64.9419440   9.1153660  73.4231940  65.0297480  10.4576230  74.1178280
  56.6925160   5.5221800  72.6783370  56.5875800   4.9074150  73.4044750
  56.5249380   4.9987690  71.8946380  59.9327890   4.5841830  73.2825360
  59.3837990   5.0311130  73.9268100  60.5547150   4.0791080  73.8063030
  55.6003010   3.5432750  75.1790660  56.0219430   3.3772620  76.0222050
  55.7253850   2.7332980  74.6845800  58.1130650   2.5670360  72.4267760
  58.6336310   1.8519380  72.0608910  58.7599050   3.2056230  72.7268270
  57.4223720   3.9419240  85.7198760  57.8411830   4.7851970  85.5475000
  56.5032350   4.0791280  85.4905540  58.6778680  10.6481970  74.7169500
  59.5729470  10.9866940  74.7388260  58.7096310   9.9261380  74.0893780
  52.3174840   6.0209020  72.9456500  52.7549710   6.5638690  73.6014080
  52.8022570   5.1955970  72.9552840  49.5320640   8.8098050  80.3976760
  49.8623650   7.9419110  80.1655400  49.9611640   9.0156570  81.2281720
  54.1282560   7.1407060  78.0578730  53.8278100   7.0172030  78.9582640
  54.0220050   6.2815650  77.6494460  50.0210850   9.6768640  83.1358390
  49.5841840   9.8569440  83.9682540  50.5888530  10.4343260  82.9940110
  66.8974480   6.9203460  72.7605410  66.0667440   6.9880110  73.2312640
  67.0746310   7.8107580  72.4572270  66.3530940   3.6650940  75.2639610
  67.1149850   4.2347590  75.3699300  66.3685310   3.0978140  76.0347920
  49.8535280   2.1888870  79.4947270  49.1984120   1.9200510  78.8506970
  50.6913230   2.0793350  79.0449250  67.3590910   4.5201040  80.1081540
  67.7299740   3.7368360  79.7017510  67.9992840   5.2090140  79.9298840
  64.3424670   5.9037620  85.5211860  63.5284510   6.3334780  85.7837650
  64.7498870   6.5156030  84.9080910  66.4050110   3.9585310  72.4212130
  66.6798950   4.8664190  72.2931350  66.2160850   3.8947840  73.3574120
  50.8911210   2.5741440  84.0350610  51.2584250   2.4868840  84.9146630
  50.3222030   1.8107990  83.9357470  64.4000720  10.6556220  79.0480130
  64.9959790  10.3340790  78.3714550  64.6578870  10.1828040  79.8393400
  56.0069320   8.6433720  84.7980480  55.7660680   8.9108280  83.9111000
  56.9471960   8.8139450  84.8531340  67.2673480  10.6628100  85.5991120
  66.7731760  11.0596970  84.8818250  66.6586770  10.0377310  85.9928400
  64.9512930  11.3051520  82.8777860  64.4915900  12.0567330  82.5035880
  64.3225390  10.5857990  82.8192660  51.7763550   7.3994760  85.2676580
  51.0497610   6.7800050  85.2002530  51.8372700   7.7935370  84.3974660
  55.3808650   9.6139760  82.0525990  55.8973670   9.0027120  81.5274250
  56.0306030  10.1168540  82.5437000  58.1204150  10.5048250  82.8794970
  58.4081960  10.2502550  82.0027980  58.6327370   9.9525610  83.4700540
  50.0593550  10.7169150  78.4773340  49.8915590  10.0839830  79.1755230
  49.1928060  10.9228550  78.1267530  51.6656250   9.4102380  75.9223480
  51.1403870   9.7910410  75.2185440  51.5900830  10.0353150  76.6433190
  66.4221570  10.9689920  77.2437420  66.5973760  10.2827660  76.5998340
  65.7243140  11.4936970  76.8514090  54.2649220  11.3584760  74.7972730
  54.9968040  11.0744040  74.2496620  54.5242890  11.1198040  75.6872110
  53.4264010   7.4749490  74.8019060  52.7972890   7.9434590  75.3504890
  53.5411840   6.6298710  75.2365250  59.0131770   3.3034170  62.8329530
  58.2373870   2.8234610  63.1228100  59.6644700   2.6239820  62.6585690
  53.0297600   3.6153980  63.7105290  52.1982480   3.3602690  64.1101800
  53.6378580   3.6864750  64.4463210  63.0339200   7.7094360  61.6128660
  62.5720730   6.9381600  61.9415830  63.8464750   7.7360430  62.1181110
  53.0098860   7.6494070  63.9063310  53.3126900   6.7591810  63.7273530
  53.7542450   8.2064290  63.6785560  59.2602510   9.9952370  61.2332650
  58.6413950  10.4509870  60.6627090  60.1154290  10.1503830  60.8322350
  58.4540760   5.9791360  62.8399690  58.3849040   5.0381300  62.6788820
  59.2160620   6.0692770  63.4122260  60.1265860   4.8791610  58.6264560
  59.5083130   5.3441060  58.0627280  60.6389110   5.5719090  59.0434070
  54.9897620   4.4067480  65.3048160  54.6567000   5.0336400  65.9469230
  55.1664300   4.9329360  64.5249830  54.2016720   6.3748280  67.1197340
  54.8190720   7.0499360  66.8381790  53.3409840   6.7836260  67.0284840
  49.4949060   5.5648140  56.0004190  49.1177040   6.0535240  55.2689090
  49.7522130   6.2373420  56.6310720  65.1194310   7.8387690  65.0351980
  64.4357830   8.5086800  65.0268650  65.6588600   8.0368340  64.2696840
  62.6553050   9.6831820  63.7497160  62.6680210   9.2794110  62.8819420
  62.1028270  10.4579110  63.6458590  63.9498470   6.4048040  58.8387330
  63.8394800   5.4622370  58.9636750  63.9466720   6.7663680  59.7250090
  62.0538490   4.5861660  65.0779770  62.4707280   4.3721770  64.2433230
  62.7778310   4.8434450  65.6488390  59.4918750   2.0313360  58.1949820
  58.5648030   1.9650740  58.4238290  59.6443570   2.9693490  58.0805060
  66.0000590   2.9848880  65.1696010  65.1719220   3.0541970  64.6946140
  66.5951070   3.5703190  64.7011840  63.5216040   3.5933660  58.6985070
  62.9028460   3.2553210  58.0511370  63.5040490   2.9493420  59.4064260
  55.0975390   2.5578100  60.9769550  54.6932390   1.8455350  60.4815450
  55.1838510   2.2131340  61.8657590  55.5657090   6.2445660  63.1408760
  55.2685380   5.6391130  62.4616540  56.5156910   6.2822970  63.0298120
  63.6542700   9.8177530  66.8031860  63.1773260  10.6249720  66.6104470
  62.9704490   9.1655860  66.9558070  54.6575520   5.9827350  69.7916560
  53.7604050   6.2067320  70.0389960  54.6828390   6.1062290  68.8427960
  61.6980740   2.8320470  55.7057820  62.1374020   1.9942900  55.5595640
  62.4109160   3.4649870  55.7921960  53.4846740   2.8540670  68.3673930
  53.3454510   3.7263470  68.7361330  52.6028100   2.5113480  68.2221870
  59.8076120   7.7716540  59.6739060  60.2472030   8.5140870  59.2594450
  59.7463010   8.0143110  60.5978020  55.2827090   8.7962370  70.5759080
  55.2542520   9.2005320  69.7087510  55.1192060   7.8672730  70.4130680
  67.2341910   9.5789470  71.8723250  67.7101630  10.0572360  72.5512330
  67.8549070   9.5106960  71.1468750  49.4365390   4.6238220  64.2844840
  49.5145810   4.7586990  63.3400560  50.0507070   3.9154110  64.4772960
  50.6813020   6.3238410  60.6951020  50.2741100   6.4653000  59.8404620
  51.5726030   6.0398570  60.4922230  66.6375160   6.7702320  69.0323260
  66.7638220   6.5314200  68.1140440  66.6796540   5.9386860  69.5045340
  60.4991900  10.4730320  67.6018070  61.0136570  10.3838330  68.4040500
  59.6560980  10.8190020  67.8945980  62.4746300  10.7585660  57.0302070
  62.3147440  10.4688600  57.9283900  62.3093010   9.9825790  56.4947300
  54.9534680  10.5384190  58.8073690  54.7777160   9.6219730  58.5941490
  54.0990420  10.8971480  59.0471490  62.1772430   8.2673220  55.5900070
  61.4837590   8.2650510  54.9302350  62.9195290   7.8432540  55.1594240
  61.7422360   9.8935930  59.6648560  62.1979310   9.1125310  59.9787180
  62.0814880  10.6042750  60.2089740  49.4924910   5.6652390  66.8239300
  49.6555950   5.1957750  66.0058670  49.9577360   5.1575950  67.4888140
  51.0663890   5.0403820  68.9835110  50.6818680   4.3997490  69.5818070
  51.3776080   5.7439940  69.5529840  53.5342190   5.1349990  57.3794790
  52.7604450   4.5947610  57.2193510  54.2636820   4.6156600  57.0412550
  64.2930170   4.1315350  63.1721180  65.0129290   4.6270640  62.7817290
  64.0911990   3.4533240  62.5275050  59.6748970   4.2024410  69.0590180
  59.6086280   3.2820080  68.8047770  59.0454110   4.2999850  69.7734820
  53.5779590   4.8030370  61.0173600  54.0958260   3.9998630  60.9630490
  53.1263610   4.7409510  61.8590430  58.4649090   6.0696650  56.2900900
  58.8064790   6.8138880  55.7944220  57.6361800   6.3827770  56.6525730
  54.2637250   2.2275980  70.8138850  53.9637390   2.3733160  69.9166670
  55.0348490   1.6681270  70.7212240  59.6065700   7.0244980  68.8093980
  59.6210240   6.0925940  68.5912890  58.8990800   7.1104740  69.4483750
  65.8176910   3.6652320  68.1562560  65.0925100   4.2581100  67.9591950
  66.3452370   3.6575860  67.3575930  65.7690020   8.0627060  57.8074720
  65.1266180   7.4082680  58.0818440  65.3820680   8.4682150  57.0315390
  61.3476500   5.3912490  61.6546410  61.7000320   4.7940620  60.9947780
  60.4638830   5.0656720  61.8254660  57.4339780   6.1510180  59.0616820
  58.1210910   6.6979390  59.4424410  56.6472200   6.6950910  59.0966430
  49.5732180   1.7683000  54.5533900  50.4427030   2.0507800  54.8369820
  49.0822500   2.5818870  54.4382710  56.7366990   3.1556210  58.6742180
  57.1929770   3.9661460  58.9002370  56.3855200   2.8379350  59.5060670
  59.0399600   8.6662550  65.9034480  59.6841820   8.8721930  66.5807900
  59.4029040   7.9050950  65.4505330  60.3131680   6.6694900  64.6211930
  60.9553910   5.9688060  64.7344100  60.8381030   7.4493340  64.4408820
  64.1587400   6.9543520  54.3451070  63.9324980   6.2373960  54.9375710
  63.7683600   6.7055960  53.5072820  62.0869300   7.4689800  67.8247990
  62.4225540   8.0556490  68.5025910  61.1669640   7.3382510  68.0545780
  49.9403430  10.9810380  55.1195530  50.3001070  11.5799720  54.4652800
  49.7995770  11.5270270  55.8930560  63.7403650   4.8715460  56.0065230
  63.4525350   5.3328150  56.7943110  64.5355820   4.4113230  56.2749450
  49.9245290   9.2465240  69.5937930  50.0336410   8.3059980  69.4533320
  49.2725850   9.5119990  68.9451660  57.9157880   7.5181130  70.9936050
  57.5954750   6.7990370  71.5381740  57.2416240   8.1936200  71.0672110
  55.9572050   8.3641580  55.9369200  55.9482150   9.0971270  55.3213710
  55.0370410   8.1173160  56.0296160  51.5578690   3.5856470  56.6815960
  50.9506640   4.3255370  56.6911260  52.0328040   3.6755830  55.8554160
  58.9431650   8.4269820  54.5994390  59.0443630   8.2233810  53.6696370
  58.0433390   8.1728100  54.8042170  57.5849760  10.9456140  59.2942060
  57.8391260  10.9077530  58.3721430  56.6362240  10.8189470  59.2870310
  53.5683980   3.5467620  54.4304530  54.3347250   3.4348980  54.9929960
  53.6458670   2.8505590  53.7781300  65.5927920   9.0356870  62.5454830
  65.7175340   9.8588040  63.0178640  66.4593480   8.8247600  62.1978980
  53.0645450  11.1288080  62.2171960  53.8007930  10.5803540  62.4880530
  53.4486370  11.9944090  62.0777950  49.9490930   7.1961650  58.0913470
  49.0230710   7.4382790  58.0818880  50.4147360   8.0235910  57.9698220
  52.0703730  10.3134150  71.4057540  52.8716460  10.6346200  71.8192940
  51.5555550   9.9529730  72.1277450  56.1747760  10.3018390  54.0397530
  56.9676370  10.5907220  53.5879320  55.6552110   9.8710560  53.3610010
  60.9068360   6.4214020  71.3532950  60.3006520   6.4445620  70.6128700
  60.6022470   5.6897060  71.8900200  62.3368730  10.1494310  69.9642360
  63.2890480  10.0652330  69.9142600  62.1896950  10.8136020  70.6376150
  65.2277930   9.5288520  55.4634270  64.9419440   9.1153660  54.6488450
  65.0297480  10.4576230  55.3434790  49.7901540   2.8007610  70.3493590
  50.2940560   2.2214890  70.9209820  49.0508960   3.0847840  70.8869960
  56.6925160   5.5221800  53.9039880  56.5875800   4.9074150  54.6301260
  56.5249380   4.9987690  53.1202890  56.8439480   4.2078600  69.8829110
  56.0785150   4.7763600  69.7983780  57.0255440   3.9154810  68.9897340
  59.9327890   4.5841830  54.5081870  59.3837990   5.0311130  55.1524610
  60.5547150   4.0791080  55.0319540  63.9862830   5.9383930  70.4404130
  64.7272300   6.2759690  69.9371590  63.2235510   6.1075990  69.8873900
  55.6003010   3.5432750  56.4047170  56.0219430   3.3772620  57.2478560
  55.7253850   2.7332980  55.9102310  58.1130650   2.5670360  53.6524270
  58.6336310   1.8519380  53.2865420  58.7599050   3.2056230  53.9524780
  62.6608490   3.9898760  68.9759340  63.0749510   4.1443840  69.8249760
  61.7259490   4.1153980  69.1385120  57.4223720   3.9419240  66.9455270
  57.8411830   4.7851970  66.7731510  56.5032350   4.0791280  66.7162050
  62.0975520   2.2272610  66.9055620  61.5710740   2.7515230  66.3020760
  62.4406860   2.8600000  67.5365350  55.2731140  10.2472250  68.0613000
  54.7352230  10.9718310  67.7421700  55.5265100   9.7702590  67.2710340
  58.1293350  11.4823460  68.3199650  58.0552050  12.3858600  68.6272020
  57.2272190  11.1635360  68.2921720  58.6778680  10.6481970  55.9426010
  59.5729470  10.9866940  55.9644770  58.7096310   9.9261380  55.3150290
  52.3174840   6.0209020  54.1713010  52.7549710   6.5638690  54.8270590
  52.8022570   5.1955970  54.1809350  49.5320640   8.8098050  61.6233270
  49.8623650   7.9419110  61.3911910  49.9611640   9.0156570  62.4538230
  54.1282560   7.1407060  59.2835240  53.8278100   7.0172030  60.1839150
  54.0220050   6.2815650  58.8750970  50.0210850   9.6768640  64.3614900
  49.5841840   9.8569440  65.1939050  50.5888530  10.4343260  64.2196620
  65.6573030   9.1785640  68.6492210  65.0575020   9.2378200  67.9056130
  65.7866930   8.2390620  68.7789060  66.8974480   6.9203460  53.9861920
  66.0667440   6.9880110  54.4569150  67.0746310   7.8107580  53.6828780
  66.3530940   3.6650940  56.4896120  67.1149850   4.2347590  56.5955810
  66.3685310   3.0978140  57.2604430  49.8535280   2.1888870  60.7203780
  49.1984120   1.9200510  60.0763480  50.6913230   2.0793350  60.2705760
  67.3590910   4.5201040  61.3338050  67.7299740   3.7368360  60.9274020
  67.9992840   5.2090140  61.1555350  64.3424670   5.9037620  66.7468370
  63.5284510   6.3334780  67.0094160  64.7498870   6.5156030  66.1337420
  66.4050110   3.9585310  53.6468640  66.6798950   4.8664190  53.5187860
  66.2160850   3.8947840  54.5830630  50.8911210   2.5741440  65.2607120
  51.2584250   2.4868840  66.1403140  50.3222030   1.8107990  65.1613980
  64.4000720  10.6556220  60.2736640  64.9959790  10.3340790  59.5971060
  64.6578870  10.1828040  61.0649910  52.3063290   7.0874130  70.4227270
  52.2632920   6.7167040  71.3041730  52.4374300   8.0251700  70.5629090
  56.0069320   8.6433720  66.0236990  55.7660680   8.9108280  65.1367510
  56.9471960   8.8139450  66.0787850  67.2673480  10.6628100  66.8247630
  66.7731760  11.0596970  66.1074760  66.6586770  10.0377310  67.2184910
  52.1451320  10.0336380  67.5425050  51.5511640   9.9021080  68.2815090
  52.1375160   9.1974520  67.0767150  64.9512930  11.3051520  64.1034370
  64.4915900  12.0567330  63.7292390  64.3225390  10.5857990  64.0449170
  51.7763550   7.3994760  66.4933090  51.0497610   6.7800050  66.4259040
  51.8372700   7.7935370  65.6231170  55.3808650   9.6139760  63.2782500
  55.8973670   9.0027120  62.7530760  56.0306030  10.1168540  63.7693510
  58.1204150  10.5048250  64.1051480  58.4081960  10.2502550  63.2284490
  58.6327370   9.9525610  64.6957050  50.0593550  10.7169150  59.7029850
  49.8915590  10.0839830  60.4011740  49.1928060  10.9228550  59.3524040
  51.6656250   9.4102380  57.1479990  51.1403870   9.7910410  56.4441950
  51.5900830  10.0353150  57.8689700  58.1876510  11.4264350  71.4719680
  59.1143820  11.1908620  71.5155640  58.1726940  12.2536350  70.9905710
  66.4221570  10.9689920  58.4693930  66.5973760  10.2827660  57.8254850
  65.7243140  11.4936970  58.0770600  54.2649220  11.3584760  56.0229240
  54.9968040  11.0744040  55.4753130  54.5242890  11.1198040  56.9128620
  53.4264010   7.4749490  56.0275570  52.7972890   7.9434590  56.5761400
  53.5411840   6.6298710  56.4621760  64.7554070  10.6534210  71.2960720
  65.5479390  10.1583440  71.0886680  65.0487220  11.3324350  71.9036330
  59.0131770   3.3034170  44.0586040  58.2373870   2.8234610  44.3484610
  59.6644700   2.6239820  43.8842200  53.0297600   3.6153980  44.9361800
  52.1982480   3.3602690  45.3358310  53.6378580   3.6864750  45.6719720
  63.0339200   7.7094360  42.8385170  62.5720730   6.9381600  43.1672340
  63.8464750   7.7360430  43.3437620  53.0098860   7.6494070  45.1319820
  53.3126900   6.7591810  44.9530040  53.7542450   8.2064290  44.9042070
  59.2602510   9.9952370  42.4589160  58.6413950  10.4509870  41.8883600
  60.1154290  10.1503830  42.0578860  58.4540760   5.9791360  44.0656200
  58.3849040   5.0381300  43.9045330  59.2160620   6.0692770  44.6378770
  60.1265860   4.8791610  39.8521070  59.5083130   5.3441060  39.2883790
  60.6389110   5.5719090  40.2690580  54.9897620   4.4067480  46.5304670
  54.6567000   5.0336400  47.1725740  55.1664300   4.9329360  45.7506340
  54.2016720   6.3748280  48.3453850  54.8190720   7.0499360  48.0638300
  53.3409840   6.7836260  48.2541350  49.4949060   5.5648140  37.2260700
  49.1177040   6.0535240  36.4945600  49.7522130   6.2373420  37.8567230
  65.1194310   7.8387690  46.2608490  64.4357830   8.5086800  46.2525160
  65.6588600   8.0368340  45.4953350  62.6553050   9.6831820  44.9753670
  62.6680210   9.2794110  44.1075930  62.1028270  10.4579110  44.8715100
  63.9498470   6.4048040  40.0643840  63.8394800   5.4622370  40.1893260
  63.9466720   6.7663680  40.9506600  62.0538490   4.5861660  46.3036280
  62.4707280   4.3721770  45.4689740  62.7778310   4.8434450  46.8744900
  59.4918750   2.0313360  39.4206330  58.5648030   1.9650740  39.6494800
  59.6443570   2.9693490  39.3061570  66.0000590   2.9848880  46.3952520
  65.1719220   3.0541970  45.9202650  66.5951070   3.5703190  45.9268350
  63.5216040   3.5933660  39.9241580  62.9028460   3.2553210  39.2767880
  63.5040490   2.9493420  40.6320770  55.0975390   2.5578100  42.2026060
  54.6932390   1.8455350  41.7071960  55.1838510   2.2131340  43.0914100
  55.5657090   6.2445660  44.3665270  55.2685380   5.6391130  43.6873050
  56.5156910   6.2822970  44.2554630  63.6542700   9.8177530  48.0288370
  63.1773260  10.6249720  47.8360980  62.9704490   9.1655860  48.1814580
  54.6575520   5.9827350  51.0173070  53.7604050   6.2067320  51.2646470
  54.6828390   6.1062290  50.0684470  61.6980740   2.8320470  36.9314330
  62.1374020   1.9942900  36.7852150  62.4109160   3.4649870  37.0178470
  53.4846740   2.8540670  49.5930440  53.3454510   3.7263470  49.9617840
  52.6028100   2.5113480  49.4478380  59.8076120   7.7716540  40.8995570
  60.2472030   8.5140870  40.4850960  59.7463010   8.0143110  41.8234530
  55.2827090   8.7962370  51.8015590  55.2542520   9.2005320  50.9344020
  55.1192060   7.8672730  51.6387190  67.2341910   9.5789470  53.0979760
  67.7101630  10.0572360  53.7768840  67.8549070   9.5106960  52.3725260
  49.4365390   4.6238220  45.5101350  49.5145810   4.7586990  44.5657070
  50.0507070   3.9154110  45.7029470  50.6813020   6.3238410  41.9207530
  50.2741100   6.4653000  41.0661130  51.5726030   6.0398570  41.7178740
  66.6375160   6.7702320  50.2579770  66.7638220   6.5314200  49.3396950
  66.6796540   5.9386860  50.7301850  60.4991900  10.4730320  48.8274580
  61.0136570  10.3838330  49.6297010  59.6560980  10.8190020  49.1202490
  62.4746300  10.7585660  38.2558580  62.3147440  10.4688600  39.1540410
  62.3093010   9.9825790  37.7203810  54.9534680  10.5384190  40.0330200
  54.7777160   9.6219730  39.8198000  54.0990420  10.8971480  40.2728000
  62.1772430   8.2673220  36.8156580  61.4837590   8.2650510  36.1558860
  62.9195290   7.8432540  36.3850750  61.7422360   9.8935930  40.8905070
  62.1979310   9.1125310  41.2043690  62.0814880  10.6042750  41.4346250
  49.4924910   5.6652390  48.0495810  49.6555950   5.1957750  47.2315180
  49.9577360   5.1575950  48.7144650  51.0663890   5.0403820  50.2091620
  50.6818680   4.3997490  50.8074580  51.3776080   5.7439940  50.7786350
  53.5342190   5.1349990  38.6051300  52.7604450   4.5947610  38.4450020
  54.2636820   4.6156600  38.2669060  64.2930170   4.1315350  44.3977690
  65.0129290   4.6270640  44.0073800  64.0911990   3.4533240  43.7531560
  59.6748970   4.2024410  50.2846690  59.6086280   3.2820080  50.0304280
  59.0454110   4.2999850  50.9991330  53.5779590   4.8030370  42.2430110
  54.0958260   3.9998630  42.1887000  53.1263610   4.7409510  43.0846940
  58.4649090   6.0696650  37.5157410  58.8064790   6.8138880  37.0200730
  57.6361800   6.3827770  37.8782240  54.2637250   2.2275980  52.0395360
  53.9637390   2.3733160  51.1423180  55.0348490   1.6681270  51.9468750
  59.6065700   7.0244980  50.0350490  59.6210240   6.0925940  49.8169400
  58.8990800   7.1104740  50.6740260  65.8176910   3.6652320  49.3819070
  65.0925100   4.2581100  49.1848460  66.3452370   3.6575860  48.5832440
  65.7690020   8.0627060  39.0331230  65.1266180   7.4082680  39.3074950
  65.3820680   8.4682150  38.2571900  61.3476500   5.3912490  42.8802920
  61.7000320   4.7940620  42.2204290  60.4638830   5.0656720  43.0511170
  57.4339780   6.1510180  40.2873330  58.1210910   6.6979390  40.6680920
  56.6472200   6.6950910  40.3222940  49.5732180   1.7683000  35.7790410
  50.4427030   2.0507800  36.0626330  49.0822500   2.5818870  35.6639220
  56.7366990   3.1556210  39.8998690  57.1929770   3.9661460  40.1258880
  56.3855200   2.8379350  40.7317180  59.0399600   8.6662550  47.1290990
  59.6841820   8.8721930  47.8064410  59.4029040   7.9050950  46.6761840
  60.3131680   6.6694900  45.8468440  60.9553910   5.9688060  45.9600610
  60.8381030   7.4493340  45.6665330  64.1587400   6.9543520  35.5707580
  63.9324980   6.2373960  36.1632220  63.7683600   6.7055960  34.7329330
  62.0869300   7.4689800  49.0504500  62.4225540   8.0556490  49.7282420
  61.1669640   7.3382510  49.2802290  49.9403430  10.9810380  36.3452040
  50.3001070  11.5799720  35.6909310  49.7995770  11.5270270  37.1187070
  63.7403650   4.8715460  37.2321740  63.4525350   5.3328150  38.0199620
  64.5355820   4.4113230  37.5005960  49.9245290   9.2465240  50.8194440
  50.0336410   8.3059980  50.6789830  49.2725850   9.5119990  50.1708170
  57.9157880   7.5181130  52.2192560  57.5954750   6.7990370  52.7638250
  57.2416240   8.1936200  52.2928620  55.9572050   8.3641580  37.1625710
  55.9482150   9.0971270  36.5470220  55.0370410   8.1173160  37.2552670
  51.5578690   3.5856470  37.9072470  50.9506640   4.3255370  37.9167770
  52.0328040   3.6755830  37.0810670  58.9431650   8.4269820  35.8250900
  59.0443630   8.2233810  34.8952880  58.0433390   8.1728100  36.0298680
  57.5849760  10.9456140  40.5198570  57.8391260  10.9077530  39.5977940
  56.6362240  10.8189470  40.5126820  53.5683980   3.5467620  35.6561040
  54.3347250   3.4348980  36.2186470  53.6458670   2.8505590  35.0037810
  65.5927920   9.0356870  43.7711340  65.7175340   9.8588040  44.2435150
  66.4593480   8.8247600  43.4235490  53.0645450  11.1288080  43.4428470
  53.8007930  10.5803540  43.7137040  53.4486370  11.9944090  43.3034460
  49.9490930   7.1961650  39.3169980  49.0230710   7.4382790  39.3075390
  50.4147360   8.0235910  39.1954730  52.0703730  10.3134150  52.6314050
  52.8716460  10.6346200  53.0449450  51.5555550   9.9529730  53.3533960
  56.1747760  10.3018390  35.2654040  56.9676370  10.5907220  34.8135830
  55.6552110   9.8710560  34.5866520  60.9068360   6.4214020  52.5789460
  60.3006520   6.4445620  51.8385210  60.6022470   5.6897060  53.1156710
  62.3368730  10.1494310  51.1898870  63.2890480  10.0652330  51.1399110
  62.1896950  10.8136020  51.8632660  65.2277930   9.5288520  36.6890780
  64.9419440   9.1153660  35.8744960  65.0297480  10.4576230  36.5691300
  49.7901540   2.8007610  51.5750100  50.2940560   2.2214890  52.1466330
  49.0508960   3.0847840  52.1126470  56.6925160   5.5221800  35.1296390
  56.5875800   4.9074150  35.8557770  56.5249380   4.9987690  34.3459400
  56.8439480   4.2078600  51.1085620  56.0785150   4.7763600  51.0240290
  57.0255440   3.9154810  50.2153850  59.9327890   4.5841830  35.7338380
  59.3837990   5.0311130  36.3781120  60.5547150   4.0791080  36.2576050
  63.9862830   5.9383930  51.6660640  64.7272300   6.2759690  51.1628100
  63.2235510   6.1075990  51.1130410  55.6003010   3.5432750  37.6303680
  56.0219430   3.3772620  38.4735070  55.7253850   2.7332980  37.1358820
  58.1130650   2.5670360  34.8780780  58.6336310   1.8519380  34.5121930
  58.7599050   3.2056230  35.1781290  62.6608490   3.9898760  50.2015850
  63.0749510   4.1443840  51.0506270  61.7259490   4.1153980  50.3641630
  57.4223720   3.9419240  48.1711780  57.8411830   4.7851970  47.9988020
  56.5032350   4.0791280  47.9418560  62.0975520   2.2272610  48.1312130
  61.5710740   2.7515230  47.5277270  62.4406860   2.8600000  48.7621860
  55.2731140  10.2472250  49.2869510  54.7352230  10.9718310  48.9678210
  55.5265100   9.7702590  48.4966850  58.1293350  11.4823460  49.5456160
  58.0552050  12.3858600  49.8528530  57.2272190  11.1635360  49.5178230
  58.6778680  10.6481970  37.1682520  59.5729470  10.9866940  37.1901280
  58.7096310   9.9261380  36.5406800  52.3174840   6.0209020  35.3969520
  52.7549710   6.5638690  36.0527100  52.8022570   5.1955970  35.4065860
  49.5320640   8.8098050  42.8489780  49.8623650   7.9419110  42.6168420
  49.9611640   9.0156570  43.6794740  54.1282560   7.1407060  40.5091750
  53.8278100   7.0172030  41.4095660  54.0220050   6.2815650  40.1007480
  50.0210850   9.6768640  45.5871410  49.5841840   9.8569440  46.4195560
  50.5888530  10.4343260  45.4453130  65.6573030   9.1785640  49.8748720
  65.0575020   9.2378200  49.1312640  65.7866930   8.2390620  50.0045570
  66.8974480   6.9203460  35.2118430  66.0667440   6.9880110  35.6825660
  67.0746310   7.8107580  34.9085290  66.3530940   3.6650940  37.7152630
  67.1149850   4.2347590  37.8212320  66.3685310   3.0978140  38.4860940
  49.8535280   2.1888870  41.9460290  49.1984120   1.9200510  41.3019990
  50.6913230   2.0793350  41.4962270  67.3590910   4.5201040  42.5594560
  67.7299740   3.7368360  42.1530530  67.9992840   5.2090140  42.3811860
  64.3424670   5.9037620  47.9724880  63.5284510   6.3334780  48.2350670
  64.7498870   6.5156030  47.3593930  66.4050110   3.9585310  34.8725150
  66.6798950   4.8664190  34.7444370  66.2160850   3.8947840  35.8087140
  50.8911210   2.5741440  46.4863630  51.2584250   2.4868840  47.3659650
  50.3222030   1.8107990  46.3870490  64.4000720  10.6556220  41.4993150
  64.9959790  10.3340790  40.8227570  64.6578870  10.1828040  42.2906420
  52.3063290   7.0874130  51.6483780  52.2632920   6.7167040  52.5298240
  52.4374300   8.0251700  51.7885600  56.0069320   8.6433720  47.2493500
  55.7660680   8.9108280  46.3624020  56.9471960   8.8139450  47.3044360
  67.2673480  10.6628100  48.0504140  66.7731760  11.0596970  47.3331270
  66.6586770  10.0377310  48.4441420  52.1451320  10.0336380  48.7681560
  51.5511640   9.9021080  49.5071600  52.1375160   9.1974520  48.3023660
  64.9512930  11.3051520  45.3290880  64.4915900  12.0567330  44.9548900
  64.3225390  10.5857990  45.2705680  51.7763550   7.3994760  47.7189600
  51.0497610   6.7800050  47.6515550  51.8372700   7.7935370  46.8487680
  55.3808650   9.6139760  44.5039010  55.8973670   9.0027120  43.9787270
  56.0306030  10.1168540  44.9950020  58.1204150  10.5048250  45.3307990
  58.4081960  10.2502550  44.4541000  58.6327370   9.9525610  45.9213560
  50.0593550  10.7169150  40.9286360  49.8915590  10.0839830  41.6268250
  49.1928060  10.9228550  40.5780550  51.6656250   9.4102380  38.3736500
  51.1403870   9.7910410  37.6698460  51.5900830  10.0353150  39.0946210
  58.1876510  11.4264350  52.6976190  59.1143820  11.1908620  52.7412150
  58.1726940  12.2536350  52.2162220  66.4221570  10.9689920  39.6950440
  66.5973760  10.2827660  39.0511360  65.7243140  11.4936970  39.3027110
  54.2649220  11.3584760  37.2485750  54.9968040  11.0744040  36.7009640
  54.5242890  11.1198040  38.1385130  53.4264010   7.4749490  37.2532080
  52.7972890   7.9434590  37.8017910  53.5411840   6.6298710  37.6878270
  64.7554070  10.6534210  52.5217230  65.5479390  10.1583440  52.3143190
  65.0487220  11.3324350  53.1292840  59.0131770   3.3034170  25.2842550
  58.2373870   2.8234610  25.5741120  59.6644700   2.6239820  25.1098710
  53.0297600   3.6153980  26.1618310  52.1982480   3.3602690  26.5614820
  53.6378580   3.6864750  26.8976230  63.0339200   7.7094360  24.0641680
  62.5720730   6.9381600  24.3928850  63.8464750   7.7360430  24.5694130
  53.0098860   7.6494070  26.3576330  53.3126900   6.7591810  26.1786550
  53.7542450   8.2064290  26.1298580  59.2602510   9.9952370  23.6845670
  58.6413950  10.4509870  23.1140110  60.1154290  10.1503830  23.2835370
  58.4540760   5.9791360  25.2912710  58.3849040   5.0381300  25.1301840
  59.2160620   6.0692770  25.8635280  60.1265860   4.8791610  21.0777580
  59.5083130   5.3441060  20.5140300  60.6389110   5.5719090  21.4947090
  54.9897620   4.4067480  27.7561180  54.6567000   5.0336400  28.3982250
  55.1664300   4.9329360  26.9762850  54.2016720   6.3748280  29.5710360
  54.8190720   7.0499360  29.2894810  53.3409840   6.7836260  29.4797860
  49.4949060   5.5648140  18.4517210  49.1177040   6.0535240  17.7202110
  49.7522130   6.2373420  19.0823740  65.1194310   7.8387690  27.4865000
  64.4357830   8.5086800  27.4781670  65.6588600   8.0368340  26.7209860
  62.6553050   9.6831820  26.2010180  62.6680210   9.2794110  25.3332440
  62.1028270  10.4579110  26.0971610  63.9498470   6.4048040  21.2900350
  63.8394800   5.4622370  21.4149770  63.9466720   6.7663680  22.1763110
  62.0538490   4.5861660  27.5292790  62.4707280   4.3721770  26.6946250
  62.7778310   4.8434450  28.1001410  59.4918750   2.0313360  20.6462840
  58.5648030   1.9650740  20.8751310  59.6443570   2.9693490  20.5318080
  66.0000590   2.9848880  27.6209030  65.1719220   3.0541970  27.1459160
  66.5951070   3.5703190  27.1524860  63.5216040   3.5933660  21.1498090
  62.9028460   3.2553210  20.5024390  63.5040490   2.9493420  21.8577280
  55.0975390   2.5578100  23.4282570  54.6932390   1.8455350  22.9328470
  55.1838510   2.2131340  24.3170610  55.5657090   6.2445660  25.5921780
  55.2685380   5.6391130  24.9129560  56.5156910   6.2822970  25.4811140
  63.6542700   9.8177530  29.2544880  63.1773260  10.6249720  29.0617490
  62.9704490   9.1655860  29.4071090  54.6575520   5.9827350  32.2429580
  53.7604050   6.2067320  32.4902980  54.6828390   6.1062290  31.2940980
  61.6980740   2.8320470  18.1570840  62.1374020   1.9942900  18.0108660
  62.4109160   3.4649870  18.2434980  53.4846740   2.8540670  30.8186950
  53.3454510   3.7263470  31.1874350  52.6028100   2.5113480  30.6734890
  59.8076120   7.7716540  22.1252080  60.2472030   8.5140870  21.7107470
  59.7463010   8.0143110  23.0491040  55.2827090   8.7962370  33.0272100
  55.2542520   9.2005320  32.1600530  55.1192060   7.8672730  32.8643700
  67.2341910   9.5789470  34.3236270  67.7101630  10.0572360  35.0025350
  67.8549070   9.5106960  33.5981770  49.4365390   4.6238220  26.7357860
  49.5145810   4.7586990  25.7913580  50.0507070   3.9154110  26.9285980
  50.6813020   6.3238410  23.1464040  50.2741100   6.4653000  22.2917640
  51.5726030   6.0398570  22.9435250  66.6375160   6.7702320  31.4836280
  66.7638220   6.5314200  30.5653460  66.6796540   5.9386860  31.9558360
  60.4991900  10.4730320  30.0531090  61.0136570  10.3838330  30.8553520
  59.6560980  10.8190020  30.3459000  62.4746300  10.7585660  19.4815090
  62.3147440  10.4688600  20.3796920  62.3093010   9.9825790  18.9460320
  54.9534680  10.5384190  21.2586710  54.7777160   9.6219730  21.0454510
  54.0990420  10.8971480  21.4984510  62.1772430   8.2673220  18.0413090
  61.4837590   8.2650510  17.3815370  62.9195290   7.8432540  17.6107260
  61.7422360   9.8935930  22.1161580  62.1979310   9.1125310  22.4300200
  62.0814880  10.6042750  22.6602760  49.4924910   5.6652390  29.2752320
  49.6555950   5.1957750  28.4571690  49.9577360   5.1575950  29.9401160
  51.0663890   5.0403820  31.4348130  50.6818680   4.3997490  32.0331090
  51.3776080   5.7439940  32.0042860  53.5342190   5.1349990  19.8307810
  52.7604450   4.5947610  19.6706530  54.2636820   4.6156600  19.4925570
  64.2930170   4.1315350  25.6234200  65.0129290   4.6270640  25.2330310
  64.0911990   3.4533240  24.9788070  59.6748970   4.2024410  31.5103200
  59.6086280   3.2820080  31.2560790  59.0454110   4.2999850  32.2247840
  53.5779590   4.8030370  23.4686620  54.0958260   3.9998630  23.4143510
  53.1263610   4.7409510  24.3103450  58.4649090   6.0696650  18.7413920
  58.8064790   6.8138880  18.2457240  57.6361800   6.3827770  19.1038750
  54.2637250   2.2275980  33.2651870  53.9637390   2.3733160  32.3679690
  55.0348490   1.6681270  33.1725260  59.6065700   7.0244980  31.2607000
  59.6210240   6.0925940  31.0425910  58.8990800   7.1104740  31.8996770
  65.8176910   3.6652320  30.6075580  65.0925100   4.2581100  30.4104970
  66.3452370   3.6575860  29.8088950  65.7690020   8.0627060  20.2587740
  65.1266180   7.4082680  20.5331460  65.3820680   8.4682150  19.4828410
  61.3476500   5.3912490  24.1059430  61.7000320   4.7940620  23.4460800
  60.4638830   5.0656720  24.2767680  57.4339780   6.1510180  21.5129840
  58.1210910   6.6979390  21.8937430  56.6472200   6.6950910  21.5479450
  49.5732180   1.7683000  17.0046920  50.4427030   2.0507800  17.2882840
  49.0822500   2.5818870  16.8895730  56.7366990   3.1556210  21.1255200
  57.1929770   3.9661460  21.3515390  56.3855200   2.8379350  21.9573690
  59.0399600   8.6662550  28.3547500  59.6841820   8.8721930  29.0320920
  59.4029040   7.9050950  27.9018350  60.3131680   6.6694900  27.0724950
  60.9553910   5.9688060  27.1857120  60.8381030   7.4493340  26.8921840
  64.1587400   6.9543520  16.7964090  63.9324980   6.2373960  17.3888730
  63.7683600   6.7055960  15.9585840  62.0869300   7.4689800  30.2761010
  62.4225540   8.0556490  30.9538930  61.1669640   7.3382510  30.5058800
  49.9403430  10.9810380  17.5708550  50.3001070  11.5799720  16.9165820
  49.7995770  11.5270270  18.3443580  63.7403650   4.8715460  18.4578250
  63.4525350   5.3328150  19.2456130  64.5355820   4.4113230  18.7262470
  49.9245290   9.2465240  32.0450950  50.0336410   8.3059980  31.9046340
  49.2725850   9.5119990  31.3964680  57.9157880   7.5181130  33.4449070
  57.5954750   6.7990370  33.9894760  57.2416240   8.1936200  33.5185130
  55.9572050   8.3641580  18.3882220  55.9482150   9.0971270  17.7726730
  55.0370410   8.1173160  18.4809180  51.5578690   3.5856470  19.1328980
  50.9506640   4.3255370  19.1424280  52.0328040   3.6755830  18.3067180
  58.9431650   8.4269820  17.0507410  59.0443630   8.2233810  16.1209390
  58.0433390   8.1728100  17.2555190  57.5849760  10.9456140  21.7455080
  57.8391260  10.9077530  20.8234450  56.6362240  10.8189470  21.7383330
  53.5683980   3.5467620  16.8817550  54.3347250   3.4348980  17.4442980
  53.6458670   2.8505590  16.2294320  65.5927920   9.0356870  24.9967850
  65.7175340   9.8588040  25.4691660  66.4593480   8.8247600  24.6492000
  53.0645450  11.1288080  24.6684980  53.8007930  10.5803540  24.9393550
  53.4486370  11.9944090  24.5290970  49.9490930   7.1961650  20.5426490
  49.0230710   7.4382790  20.5331900  50.4147360   8.0235910  20.4211240
  52.0703730  10.3134150  33.8570560  52.8716460  10.6346200  34.2705960
  51.5555550   9.9529730  34.5790470  56.1747760  10.3018390  16.4910550
  56.9676370  10.5907220  16.0392340  55.6552110   9.8710560  15.8123030
  60.9068360   6.4214020  33.8045970  60.3006520   6.4445620  33.0641720
  60.6022470   5.6897060  34.3413220  62.3368730  10.1494310  32.4155380
  63.2890480  10.0652330  32.3655620  62.1896950  10.8136020  33.0889170
  65.2277930   9.5288520  17.9147290  64.9419440   9.1153660  17.1001470
  65.0297480  10.4576230  17.7947810  49.7901540   2.8007610  32.8006610
  50.2940560   2.2214890  33.3722840  49.0508960   3.0847840  33.3382980
  56.6925160   5.5221800  16.3552900  56.5875800   4.9074150  17.0814280
  56.5249380   4.9987690  15.5715910  56.8439480   4.2078600  32.3342130
  56.0785150   4.7763600  32.2496800  57.0255440   3.9154810  31.4410360
  59.9327890   4.5841830  16.9594890  59.3837990   5.0311130  17.6037630
  60.5547150   4.0791080  17.4832560  63.9862830   5.9383930  32.8917150
  64.7272300   6.2759690  32.3884610  63.2235510   6.1075990  32.3386920
  55.6003010   3.5432750  18.8560190  56.0219430   3.3772620  19.6991580
  55.7253850   2.7332980  18.3615330  58.1130650   2.5670360  16.1037290
  58.6336310   1.8519380  15.7378440  58.7599050   3.2056230  16.4037800
  62.6608490   3.9898760  31.4272360  63.0749510   4.1443840  32.2762780
  61.7259490   4.1153980  31.5898140  57.4223720   3.9419240  29.3968290
  57.8411830   4.7851970  29.2244530  56.5032350   4.0791280  29.1675070
  62.0975520   2.2272610  29.3568640  61.5710740   2.7515230  28.7533780
  62.4406860   2.8600000  29.9878370  55.2731140  10.2472250  30.5126020
  54.7352230  10.9718310  30.1934720  55.5265100   9.7702590  29.7223360
  58.1293350  11.4823460  30.7712670  58.0552050  12.3858600  31.0785040
  57.2272190  11.1635360  30.7434740  58.6778680  10.6481970  18.3939030
  59.5729470  10.9866940  18.4157790  58.7096310   9.9261380  17.7663310
  52.3174840   6.0209020  16.6226030  52.7549710   6.5638690  17.2783610
  52.8022570   5.1955970  16.6322370  49.5320640   8.8098050  24.0746290
  49.8623650   7.9419110  23.8424930  49.9611640   9.0156570  24.9051250
  54.1282560   7.1407060  21.7348260  53.8278100   7.0172030  22.6352170
  54.0220050   6.2815650  21.3263990  50.0210850   9.6768640  26.8127920
  49.5841840   9.8569440  27.6452070  50.5888530  10.4343260  26.6709640
  65.6573030   9.1785640  31.1005230  65.0575020   9.2378200  30.3569150
  65.7866930   8.2390620  31.2302080  66.8974480   6.9203460  16.4374940
  66.0667440   6.9880110  16.9082170  67.0746310   7.8107580  16.1341800
  66.3530940   3.6650940  18.9409140  67.1149850   4.2347590  19.0468830
  66.3685310   3.0978140  19.7117450  49.8535280   2.1888870  23.1716800
  49.1984120   1.9200510  22.5276500  50.6913230   2.0793350  22.7218780
  67.3590910   4.5201040  23.7851070  67.7299740   3.7368360  23.3787040
  67.9992840   5.2090140  23.6068370  64.3424670   5.9037620  29.1981390
  63.5284510   6.3334780  29.4607180  64.7498870   6.5156030  28.5850440
  66.4050110   3.9585310  16.0981660  66.6798950   4.8664190  15.9700880
  66.2160850   3.8947840  17.0343650  50.8911210   2.5741440  27.7120140
  51.2584250   2.4868840  28.5916160  50.3222030   1.8107990  27.6127000
  64.4000720  10.6556220  22.7249660  64.9959790  10.3340790  22.0484080
  64.6578870  10.1828040  23.5162930  52.3063290   7.0874130  32.8740290
  52.2632920   6.7167040  33.7554750  52.4374300   8.0251700  33.0142110
  56.0069320   8.6433720  28.4750010  55.7660680   8.9108280  27.5880530
  56.9471960   8.8139450  28.5300870  67.2673480  10.6628100  29.2760650
  66.7731760  11.0596970  28.5587780  66.6586770  10.0377310  29.6697930
  52.1451320  10.0336380  29.9938070  51.5511640   9.9021080  30.7328110
  52.1375160   9.1974520  29.5280170  64.9512930  11.3051520  26.5547390
  64.4915900  12.0567330  26.1805410  64.3225390  10.5857990  26.4962190
  51.7763550   7.3994760  28.9446110  51.0497610   6.7800050  28.8772060
  51.8372700   7.7935370  28.0744190  55.3808650   9.6139760  25.7295520
  55.8973670   9.0027120  25.2043780  56.0306030  10.1168540  26.2206530
  58.1204150  10.5048250  26.5564500  58.4081960  10.2502550  25.6797510
  58.6327370   9.9525610  27.1470070  50.0593550  10.7169150  22.1542870
  49.8915590  10.0839830  22.8524760  49.1928060  10.9228550  21.8037060
  51.6656250   9.4102380  19.5993010  51.1403870   9.7910410  18.8954970
  51.5900830  10.0353150  20.3202720  58.1876510  11.4264350  33.9232700
  59.1143820  11.1908620  33.9668660  58.1726940  12.2536350  33.4418730
  66.4221570  10.9689920  20.9206950  66.5973760  10.2827660  20.2767870
  65.7243140  11.4936970  20.5283620  54.2649220  11.3584760  18.4742260
  54.9968040  11.0744040  17.9266150  54.5242890  11.1198040  19.3641640
  53.4264010   7.4749490  18.4788590  52.7972890   7.9434590  19.0274420
  53.5411840   6.6298710  18.9134780  64.7554070  10.6534210  33.7473740
  65.5479390  10.1583440  33.5399700  65.0487220  11.3324350  34.3549350
  59.0131770   3.3034170   6.5099060  58.2373870   2.8234610   6.7997630
  59.6644700   2.6239820   6.3355220  53.0297600   3.6153980   7.3874820
  52.1982480   3.3602690   7.7871330  53.6378580   3.6864750   8.1232740
  63.0339200   7.7094360   5.2898190  62.5720730   6.9381600   5.6185360
  63.8464750   7.7360430   5.7950640  53.0098860   7.6494070   7.5832840
  53.3126900   6.7591810   7.4043060  53.7542450   8.2064290   7.3555090
  59.2602510   9.9952370   4.9102180  58.6413950  10.4509870   4.3396620
  60.1154290  10.1503830   4.5091880  58.4540760   5.9791360   6.5169220
  58.3849040   5.0381300   6.3558350  59.2160620   6.0692770   7.0891790
  60.1265860   4.8791610   2.3034090  59.5083130   5.3441060   1.7396810
  60.6389110   5.5719090   2.7203600  54.9897620   4.4067480   8.9817690
  54.6567000   5.0336400   9.6238760  55.1664300   4.9329360   8.2019360
  54.2016720   6.3748280  10.7966870  54.8190720   7.0499360  10.5151320
  53.3409840   6.7836260  10.7054370  65.1194310   7.8387690   8.7121510
  64.4357830   8.5086800   8.7038180  65.6588600   8.0368340   7.9466370
  62.6553050   9.6831820   7.4266690  62.6680210   9.2794110   6.5588950
  62.1028270  10.4579110   7.3228120  63.9498470   6.4048040   2.5156860
  63.8394800   5.4622370   2.6406280  63.9466720   6.7663680   3.4019620
  62.0538490   4.5861660   8.7549300  62.4707280   4.3721770   7.9202760
  62.7778310   4.8434450   9.3257920  59.4918750   2.0313360   1.8719350
  58.5648030   1.9650740   2.1007820  59.6443570   2.9693490   1.7574590
  66.0000590   2.9848880   8.8465540  65.1719220   3.0541970   8.3715670
  66.5951070   3.5703190   8.3781370  63.5216040   3.5933660   2.3754600
  62.9028460   3.2553210   1.7280900  63.5040490   2.9493420   3.0833790
  55.0975390   2.5578100   4.6539080  54.6932390   1.8455350   4.1584980
  55.1838510   2.2131340   5.5427120  55.5657090   6.2445660   6.8178290
  55.2685380   5.6391130   6.1386070  56.5156910   6.2822970   6.7067650
  63.6542700   9.8177530  10.4801390  63.1773260  10.6249720  10.2874000
  62.9704490   9.1655860  10.6327600  54.6575520   5.9827350  13.4686090
  53.7604050   6.2067320  13.7159490  54.6828390   6.1062290  12.5197490
  53.4846740   2.8540670  12.0443460  53.3454510   3.7263470  12.4130860
  52.6028100   2.5113480  11.8991400  59.8076120   7.7716540   3.3508590
  60.2472030   8.5140870   2.9363980  59.7463010   8.0143110   4.2747550
  55.2827090   8.7962370  14.2528610  55.2542520   9.2005320  13.3857040
  55.1192060   7.8672730  14.0900210  67.2341910   9.5789470  15.5492780
  67.7101630  10.0572360  16.2281860  67.8549070   9.5106960  14.8238280
  49.4365390   4.6238220   7.9614370  49.5145810   4.7586990   7.0170090
  50.0507070   3.9154110   8.1542490  50.6813020   6.3238410   4.3720550
  50.2741100   6.4653000   3.5174150  51.5726030   6.0398570   4.1691760
  66.6375160   6.7702320  12.7092790  66.7638220   6.5314200  11.7909970
  66.6796540   5.9386860  13.1814870  60.4991900  10.4730320  11.2787600
  61.0136570  10.3838330  12.0810030  59.6560980  10.8190020  11.5715510
  54.9534680  10.5384190   2.4843220  54.7777160   9.6219730   2.2711020
  54.0990420  10.8971480   2.7241020  61.7422360   9.8935930   3.3418090
  62.1979310   9.1125310   3.6556710  62.0814880  10.6042750   3.8859270
  49.4924910   5.6652390  10.5008830  49.6555950   5.1957750   9.6828200
  49.9577360   5.1575950  11.1657670  51.0663890   5.0403820  12.6604640
  50.6818680   4.3997490  13.2587600  51.3776080   5.7439940  13.2299370
  64.2930170   4.1315350   6.8490710  65.0129290   4.6270640   6.4586820
  64.0911990   3.4533240   6.2044580  59.6748970   4.2024410  12.7359710
  59.6086280   3.2820080  12.4817300  59.0454110   4.2999850  13.4504350
  53.5779590   4.8030370   4.6943130  54.0958260   3.9998630   4.6400020
  53.1263610   4.7409510   5.5359960  54.2637250   2.2275980  14.4908380
  53.9637390   2.3733160  13.5936200  55.0348490   1.6681270  14.3981770
  59.6065700   7.0244980  12.4863510  59.6210240   6.0925940  12.2682420
  58.8990800   7.1104740  13.1253280  65.8176910   3.6652320  11.8332090
  65.0925100   4.2581100  11.6361480  66.3452370   3.6575860  11.0345460
  61.3476500   5.3912490   5.3315940  61.7000320   4.7940620   4.6717310
  60.4638830   5.0656720   5.5024190  57.4339780   6.1510180   2.7386350
  58.1210910   6.6979390   3.1193940  56.6472200   6.6950910   2.7735960
  56.7366990   3.1556210   2.3511710  57.1929770   3.9661460   2.5771900
  56.3855200   2.8379350   3.1830200  59.0399600   8.6662550   9.5804010
  59.6841820   8.8721930  10.2577430  59.4029040   7.9050950   9.1274860
  60.3131680   6.6694900   8.2981460  60.9553910   5.9688060   8.4113630
  60.8381030   7.4493340   8.1178350  62.0869300   7.4689800  11.5017520
  62.4225540   8.0556490  12.1795440  61.1669640   7.3382510  11.7315310
  49.9245290   9.2465240  13.2707460  50.0336410   8.3059980  13.1302850
  49.2725850   9.5119990  12.6221190  57.9157880   7.5181130  14.6705580
  57.5954750   6.7990370  15.2151270  57.2416240   8.1936200  14.7441640
  57.5849760  10.9456140   2.9711590  57.8391260  10.9077530   2.0490960
  56.6362240  10.8189470   2.9639840  65.5927920   9.0356870   6.2224360
  65.7175340   9.8588040   6.6948170  66.4593480   8.8247600   5.8748510
  53.0645450  11.1288080   5.8941490  53.8007930  10.5803540   6.1650060
  53.4486370  11.9944090   5.7547480  49.9490930   7.1961650   1.7683000
  49.0230710   7.4382790   1.7588410  50.4147360   8.0235910   1.6467750
  52.0703730  10.3134150  15.0827070  52.8716460  10.6346200  15.4962470
  51.5555550   9.9529730  15.8046980  60.9068360   6.4214020  15.0302480
  60.3006520   6.4445620  14.2898230  60.6022470   5.6897060  15.5669730
  62.3368730  10.1494310  13.6411890  63.2890480  10.0652330  13.5912130
  62.1896950  10.8136020  14.3145680  49.7901540   2.8007610  14.0263120
  50.2940560   2.2214890  14.5979350  49.0508960   3.0847840  14.5639490
  56.8439480   4.2078600  13.5598640  56.0785150   4.7763600  13.4753310
  57.0255440   3.9154810  12.6666870  63.9862830   5.9383930  14.1173660
  64.7272300   6.2759690  13.6141120  63.2235510   6.1075990  13.5643430
  62.6608490   3.9898760  12.6528870  63.0749510   4.1443840  13.5019290
  61.7259490   4.1153980  12.8154650  57.4223720   3.9419240  10.6224800
  57.8411830   4.7851970  10.4501040  56.5032350   4.0791280  10.3931580
  62.0975520   2.2272610  10.5825150  61.5710740   2.7515230   9.9790290
  62.4406860   2.8600000  11.2134880  55.2731140  10.2472250  11.7382530
  54.7352230  10.9718310  11.4191230  55.5265100   9.7702590  10.9479870
  58.1293350  11.4823460  11.9969180  58.0552050  12.3858600  12.3041550
  57.2272190  11.1635360  11.9691250  49.5320640   8.8098050   5.3002800
  49.8623650   7.9419110   5.0681440  49.9611640   9.0156570   6.1307760
  54.1282560   7.1407060   2.9604770  53.8278100   7.0172030   3.8608680
  54.0220050   6.2815650   2.5520500  50.0210850   9.6768640   8.0384430
  49.5841840   9.8569440   8.8708580  50.5888530  10.4343260   7.8966150
  65.6573030   9.1785640  12.3261740  65.0575020   9.2378200  11.5825660
  65.7866930   8.2390620  12.4558590  49.8535280   2.1888870   4.3973310
  49.1984120   1.9200510   3.7533010  50.6913230   2.0793350   3.9475290
  67.3590910   4.5201040   5.0107580  67.7299740   3.7368360   4.6043550
  67.9992840   5.2090140   4.8324880  64.3424670   5.9037620  10.4237900
  63.5284510   6.3334780  10.6863690  64.7498870   6.5156030   9.8106950
  50.8911210   2.5741440   8.9376650  51.2584250   2.4868840   9.8172670
  50.3222030   1.8107990   8.8383510  64.4000720  10.6556220   3.9506170
  64.9959790  10.3340790   3.2740590  64.6578870  10.1828040   4.7419440
  52.3063290   7.0874130  14.0996800  52.2632920   6.7167040  14.9811260
  52.4374300   8.0251700  14.2398620  56.0069320   8.6433720   9.7006520
  55.7660680   8.9108280   8.8137040  56.9471960   8.8139450   9.7557380
  67.2673480  10.6628100  10.5017160  66.7731760  11.0596970   9.7844290
  66.6586770  10.0377310  10.8954440  52.1451320  10.0336380  11.2194580
  51.5511640   9.9021080  11.9584620  52.1375160   9.1974520  10.7536680
  64.9512930  11.3051520   7.7803900  64.4915900  12.0567330   7.4061920
  64.3225390  10.5857990   7.7218700  51.7763550   7.3994760  10.1702620
  51.0497610   6.7800050  10.1028570  51.8372700   7.7935370   9.3000700
  55.3808650   9.6139760   6.9552030  55.8973670   9.0027120   6.4300290
  56.0306030  10.1168540   7.4463040  58.1204150  10.5048250   7.7821010
  58.4081960  10.2502550   6.9054020  58.6327370   9.9525610   8.3726580
  50.0593550  10.7169150   3.3799380  49.8915590  10.0839830   4.0781270
  49.1928060  10.9228550   3.0293570  58.1876510  11.4264350  15.1489210
  59.1143820  11.1908620  15.1925170  58.1726940  12.2536350  14.6675240
  66.4221570  10.9689920   2.1463460  66.5973760  10.2827660   1.5024380
  65.7243140  11.4936970   1.7540130  64.7554070  10.6534210  14.9730250
  65.5479390  10.1583440  14.7656210  65.0487220  11.3324350  15.5805860
  42.1070240  76.6229110  79.7263750  42.0264290  75.7083720  79.4555460
  41.6934660  77.1196180  79.0203460  32.6646060  73.6729830  76.2691170
  31.7762760  74.0145800  76.1671050  32.9487250  73.4730150  75.3772000
  30.6279070  76.2735480  82.1530870  31.1995180  75.5057680  82.1534510
  30.6280610  76.5724240  81.2437480  31.8703940  71.6819840  83.9399800
  31.6906780  70.7845590  84.2202560  31.4684020  72.2291710  84.6146750
  40.7102440  73.8835700  81.8412110  41.0867260  73.0107580  81.7285780
  40.6121950  74.2194400  80.9502550  34.8407450  72.2561330  77.3029550
  34.9474200  73.1565060  77.6098310  33.9299810  72.2079300  77.0124200
  44.4926560  71.3786140  78.7740450  45.3136180  70.8882710  78.8165930
  44.5260640  71.9683800  79.5272290  32.4890610  74.1780340  82.5482140
  33.1700720  74.4418710  83.1669540  32.1738660  73.3381210  82.8820150
  36.6815180  75.2247700  81.6354730  37.1893400  75.7228670  82.2759750
  37.2128420  74.4482900  81.4594090  48.7826110  73.3952890  85.3384080
  48.0778280  73.7834600  84.8199190  49.0484030  74.0903180  85.9405010
  34.9651280  69.8646260  85.9018150  34.9669720  70.3818650  85.0964050
  34.1355590  69.3876440  85.8788080  44.7288040  73.3186520  81.5467990
  44.0243610  73.6071410  82.1271100  45.0900200  74.1286630  81.1867550
  34.6466610  71.5756220  83.9088600  34.9883420  72.4198270  83.6142470
  33.7082420  71.7239960  84.0253940  47.7974960  72.7641310  81.9377200
  46.8499870  72.7980290  82.0692630  48.1224950  73.5780260  82.3226560
  38.3294500  69.0638490  80.2333190  38.6369480  68.5085380  79.5168690
  37.3995200  69.1982950  80.0506180  40.7175260  77.1287320  76.9693310
  39.7904540  77.0624700  77.1981780  40.8700080  78.0667450  76.8548550
  40.7044340  73.4004320  73.9660470  39.7648010  73.5618280  74.0512930
  41.0227600  74.1190000  73.4196460  44.1899110  74.8692160  84.8894370
  43.7770290  75.6945870  85.1434360  43.4575060  74.2837200  84.6970730
  36.3231900  77.6552060  79.7513040  35.9188900  76.9429310  79.2558940
  36.4095020  77.3105300  80.6401080  35.0360520  74.4295270  83.5312080
  35.5875110  74.5390610  82.7565330  35.5504030  74.8032870  84.2467310
  46.5054390  69.1837240  72.7942350  46.1927050  69.2764070  73.6941420
  47.2666860  69.7618270  72.7439780  33.0236530  76.5497040  77.2519690
  32.9034130  77.2759130  76.6400960  32.7137420  75.7799950  76.7747600
  35.4900190  69.8932110  80.6343360  35.0468340  70.6741650  80.3027880
  36.0485180  70.2162000  81.3414300  38.6059010  69.5142810  75.5149190
  37.9813190  69.5102680  76.2402500  38.5189130  68.6473770  75.1185160
  37.5276090  70.4379440  82.4932960  37.8248420  71.3442270  82.4124980
  38.0761650  69.9498220  81.8792530  35.2814410  75.0165680  78.3624610
  35.0555330  74.8002850  79.2671230  34.5006940  75.4494140  78.0170580
  42.5112170  75.0229050  76.9615260  41.9121060  75.7464850  76.7778880
  43.0591780  74.9605830  76.1791710  41.1177040  73.6592590  78.9918540
  41.5106610  73.9764790  78.1787230  41.4793890  72.7804470  79.1063060
  30.1541210  70.2493390  81.2148740  29.8654260  70.8196250  81.9273720
  30.8986970  69.7697840  81.5779970  30.3411440  74.1913510  72.4251460
  30.2586110  75.1344270  72.5666450  29.9894500  74.0488420  71.5463810
  41.7032180  76.2498340  83.0869320  40.9713300  76.7585150  83.4359420
  41.3056520  75.4328320  82.7858100  38.1409570  72.9252540  81.4921810
  38.1445630  72.4842490  80.6426350  39.0360690  73.2469870  81.5993630
  33.9911950  72.8079030  80.4516020  33.6512000  73.2854260  81.2083070
  33.2289270  72.3544150  80.0917120  38.2029720  73.9264620  74.4828570
  38.3242540  73.8851100  75.4314390  37.8178230  74.7888770  74.3275300
  42.1658090  71.7032020  82.4992260  42.1830830  72.1540670  83.3434110
  41.9173670  70.8037660  82.7125700  37.2151220  76.2365760  73.8811870
  36.6468120  75.7884010  73.2547780  37.9240220  76.5958540  73.3477020
  38.4417540  76.9854320  83.2387220  38.8087670  76.5112890  83.9848560
  38.2522600  77.8595890  83.5795560  31.3058030  71.7298010  79.3680690
  31.0204950  71.3653680  80.2059310  31.2436890  70.9978470  78.7543830
  36.2316910  76.0262960  85.5571430  35.9273980  76.9054940  85.7821790
  37.1863370  76.0862750  85.5928870  40.9796620  70.6227270  76.0894060
  40.1661230  70.1240440  76.0139370  40.7858570  71.4625520  75.6730410
  43.6945010  74.9946920  74.3856220  44.5824630  75.3064150  74.2107560
  43.6650100  74.1219170  73.9936800  45.9659280  76.3058760  73.8536080
  45.8823000  76.7372980  73.0032520  46.6853470  76.7657110  74.2862900
  30.7988690  76.8656960  73.3277390  31.6683540  77.1481760  73.6113310
  30.3079010  77.6792830  73.2126200  33.8635280  68.5967820  77.9208190
  33.7349910  68.5885720  78.8693110  33.0397300  68.9350910  77.5699200
  42.3567990  72.8481250  85.1316340  42.7248810  72.0276460  85.4595910
  41.4966190  72.9083140  85.5471990  45.7230020  71.8038190  75.9403900
  45.0943180  71.9083860  75.2262130  45.2281940  72.0234970  76.7297780
  37.6914050  74.0824140  77.3561780  36.9830200  74.5510480  77.7975390
  37.9758530  73.4246150  77.9906970  39.3169980  75.5020840  85.3554310
  39.8155230  75.9766660  86.0206160  39.4592930  74.5784360  85.5624340
  41.7229480  70.8074800  78.7957570  41.5997260  70.8260930  77.8467080
  42.6714040  70.8553740  78.9155970  35.8949070  72.3909220  74.7312490
  36.7439600  72.8279370  74.6652680  35.5280340  72.7029480  75.5584550
  44.8158850  76.9621980  79.6444060  43.8748990  76.9772210  79.8191750
  45.1302920  76.1757940  80.0904360  33.4887250  76.0766650  73.8880910
  33.5690840  75.1294160  73.9998310  34.3807000  76.4073530  73.9941570
  38.2420680  70.1438870  85.0986320  37.7937980  70.1663130  84.2531870
  37.6085880  69.7457890  85.6956620  35.7218420  74.7139940  72.1248820
  35.5207480  73.8507300  72.4862160  35.5510470  74.6273300  71.1870420
  43.2006730  69.5248170  74.6535700  43.4809020  68.6816070  75.0095120
  42.4272460  69.7571280  75.1674450  34.5201220  71.8140560  72.1126700
  34.8227120  71.8207990  71.2045850  35.2595810  71.4638420  72.6094360
  37.7386150  70.7575180  73.0982900  37.3908150  70.0799170  72.5185350
  37.9398920  70.2964690  73.9126290  31.0791790  77.2862830  79.4947270
  30.4240630  77.0174470  78.8506970  31.9169740  77.1767310  79.0449250
  44.0282230  72.0804120  73.7165760  44.4467110  71.8935100  72.8762420
  43.7218290  71.2283170  74.0268690  47.5271960  76.9928260  77.4141560
  47.1515560  76.2256190  76.9822850  46.7975080  77.3750960  77.9016490
  32.1167720  77.6715400  84.0350610  32.4840760  77.5842800  84.9146630
  31.5478540  76.9081950  83.9357470  30.2929870  74.4961760  75.4372600
  29.3893950  74.7591960  75.2624260  30.7770490  74.7672930  74.6572560
  46.8022920  75.2185750  80.7148800  47.3260400  74.7248400  80.0838970
  47.3882340  75.3536110  81.4596370  46.9812640  75.3025620  84.2368350
  46.0315350  75.2689160  84.3513340  47.1625650  76.2125730  84.0018120
  32.8357080  73.5527300  73.3466980  33.5448780  73.1310520  72.8614260
  32.1197020  73.6202530  72.7150330  32.4831240  69.6066630  72.3869630
  33.2059370  70.1475570  72.7050850  32.7555760  69.3330050  71.5111170
  46.2922890  74.4759100  76.6541210  46.7882010  74.2429970  77.4390090
  46.0938960  73.6370940  76.2378850  32.1723430  68.8572820  82.2892250
  32.8199620  68.3070200  81.8487410  32.5925270  69.1115970  83.1108060
  47.7210050  73.1120050  79.1878890  47.6109330  72.9576090  80.1261160
  48.4817640  72.5840990  78.9454300  46.0675770  69.0514180  85.6461890
  46.7047990  69.6648320  86.0121080  46.2150660  69.0874840  84.7011120
  48.6100320  70.9427970  72.4285030  49.5349630  70.8109150  72.2203320
  48.5876110  71.0220790  73.3821480  48.6838810  71.7138630  75.0541740
  47.8890310  71.6483750  75.5834650  48.8882090  72.6489270  75.0427090
  31.9255430  69.0128490  85.0317570  31.5770250  69.4692310  85.7975750
  31.5943130  68.1185620  85.1140000  42.8162850  68.4242570  84.5198570
  41.9422690  68.7577680  84.3171500  42.7073600  67.9515750  85.3450440
  43.7234830  70.6313440  85.9040290  43.3948190  69.8165200  85.5242020
  44.6717130  70.5883250  85.7805980  40.5637670  69.3412410  83.4591480
  39.7809460  69.8157910  83.7388240  40.2700600  68.4367240  83.3504660
  45.1158740  70.0435510  81.5040570  45.5566830  69.9880610  80.6562170
  44.8466330  70.9593520  81.5750750  46.9797310  69.6750750  79.5149390
  46.9185710  68.7311970  79.3680410  47.7589340  69.7830840  80.0602850
  31.9078080  69.6459890  75.9805200  32.6657440  69.7588770  75.4069230
  31.4455250  70.4829090  75.9348630  38.4491890  71.7599160  78.9707510
  37.6366400  71.3856050  78.6303390  38.9533530  71.0044240  79.2728700
  42.9516870  68.4241610  80.2090580  43.5546240  68.9961820  80.6839100
  42.2109860  68.9881050  79.9864480  46.0951470  68.8263170  75.4830860
  46.2902100  69.7246620  75.7498290  45.3081340  68.5950250  75.9763810
  34.2803230  70.1723940  74.5207170  34.8095990  69.3853740  74.3915120
  34.9131550  70.8515130  74.7542700  36.4741070  69.9099080  77.5752560
  35.8443810  69.2086390  77.7422690  35.9346210  70.6703210  77.3585720
  42.1070240  76.6229110  60.9520260  42.0264290  75.7083720  60.6811970
  41.6934660  77.1196180  60.2459970  32.6646060  73.6729830  57.4947680
  31.7762760  74.0145800  57.3927560  32.9487250  73.4730150  56.6028510
  30.6279070  76.2735480  63.3787380  31.1995180  75.5057680  63.3791020
  30.6280610  76.5724240  62.4693990  31.8703940  71.6819840  65.1656310
  31.6906780  70.7845590  65.4459070  31.4684020  72.2291710  65.8403260
  40.7102440  73.8835700  63.0668620  41.0867260  73.0107580  62.9542290
  40.6121950  74.2194400  62.1759060  34.8407450  72.2561330  58.5286060
  34.9474200  73.1565060  58.8354820  33.9299810  72.2079300  58.2380710
  44.4926560  71.3786140  59.9996960  45.3136180  70.8882710  60.0422440
  44.5260640  71.9683800  60.7528800  32.4890610  74.1780340  63.7738650
  33.1700720  74.4418710  64.3926050  32.1738660  73.3381210  64.1076660
  36.6815180  75.2247700  62.8611240  37.1893400  75.7228670  63.5016260
  37.2128420  74.4482900  62.6850600  48.7826110  73.3952890  66.5640590
  48.0778280  73.7834600  66.0455700  49.0484030  74.0903180  67.1661520
  34.9651280  69.8646260  67.1274660  34.9669720  70.3818650  66.3220560
  34.1355590  69.3876440  67.1044590  44.7288040  73.3186520  62.7724500
  44.0243610  73.6071410  63.3527610  45.0900200  74.1286630  62.4124060
  34.6466610  71.5756220  65.1345110  34.9883420  72.4198270  64.8398980
  33.7082420  71.7239960  65.2510450  47.7974960  72.7641310  63.1633710
  46.8499870  72.7980290  63.2949140  48.1224950  73.5780260  63.5483070
  38.3294500  69.0638490  61.4589700  38.6369480  68.5085380  60.7425200
  37.3995200  69.1982950  61.2762690  40.7175260  77.1287320  58.1949820
  39.7904540  77.0624700  58.4238290  40.8700080  78.0667450  58.0805060
  40.7044340  73.4004320  55.1916980  39.7648010  73.5618280  55.2769440
  41.0227600  74.1190000  54.6452970  44.1899110  74.8692160  66.1150880
  43.7770290  75.6945870  66.3690870  43.4575060  74.2837200  65.9227240
  36.3231900  77.6552060  60.9769550  35.9188900  76.9429310  60.4815450
  36.4095020  77.3105300  61.8657590  35.0360520  74.4295270  64.7568590
  35.5875110  74.5390610  63.9821840  35.5504030  74.8032870  65.4723820
  46.5054390  69.1837240  54.0198860  46.1927050  69.2764070  54.9197930
  47.2666860  69.7618270  53.9696290  33.0236530  76.5497040  58.4776200
  32.9034130  77.2759130  57.8657470  32.7137420  75.7799950  58.0004110
  47.7155680  73.9208740  69.9973000  47.0999950  74.4288410  69.4688460
  47.3952100  73.0207070  69.9398940  35.4900190  69.8932110  61.8599870
  35.0468340  70.6741650  61.5284390  36.0485180  70.2162000  62.5670810
  39.7770000  72.7600630  67.4635190  39.3149370  72.9683650  68.2755130
  39.3748110  71.9459980  67.1605860  44.7774510  73.9809580  68.5931850
  43.9268100  73.6815330  68.9140920  44.6176300  74.2251590  67.6815670
  41.8724220  75.4811330  70.6930640  42.1977630  74.6475080  70.3532870
  42.6604550  76.0039850  70.8408970  38.6059010  69.5142810  56.7405700
  37.9813190  69.5102680  57.4659010  38.5189130  68.6473770  56.3441670
  37.5276090  70.4379440  63.7189470  37.8248420  71.3442270  63.6381490
  38.0761650  69.9498220  63.1049040  35.2814410  75.0165680  59.5881120
  35.0555330  74.8002850  60.4927740  34.5006940  75.4494140  59.2427090
  42.5112170  75.0229050  58.1871770  41.9121060  75.7464850  58.0035390
  43.0591780  74.9605830  57.4048220  37.7213620  75.9151260  70.2541390
  37.6257220  74.9745990  70.1041790  38.5645600  76.1366330  69.8589460
  41.1177040  73.6592590  60.2175050  41.5106610  73.9764790  59.4043740
  41.4793890  72.7804470  60.3319570  32.8524160  72.3264930  68.4075170
  32.4587550  73.1740140  68.6147950  32.1642560  71.6891300  68.5983810
  39.4269210  72.4099900  71.4771910  38.7367530  72.2172100  72.1118000
  40.1701510  72.6934540  72.0096210  30.1541210  70.2493390  62.4405250
  29.8654260  70.8196250  63.1530230  30.8986970  69.7697840  62.8036480
  30.3411440  74.1913510  53.6507970  30.2586110  75.1344270  53.7922960
  29.9894500  74.0488420  52.7720320  41.7032180  76.2498340  64.3125830
  40.9713300  76.7585150  64.6615930  41.3056520  75.4328320  64.0114610
  38.1409570  72.9252540  62.7178320  38.1445630  72.4842490  61.8682860
  39.0360690  73.2469870  62.8250140  33.9911950  72.8079030  61.6772530
  33.6512000  73.2854260  62.4339580  33.2289270  72.3544150  61.3173630
  38.2029720  73.9264620  55.7085080  38.3242540  73.8851100  56.6570900
  37.8178230  74.7888770  55.5531810  42.1658090  71.7032020  63.7248770
  42.1830830  72.1540670  64.5690620  41.9173670  70.8037660  63.9382210
  37.2151220  76.2365760  55.1068380  36.6468120  75.7884010  54.4804290
  37.9240220  76.5958540  54.5733530  45.5928840  69.1164200  69.5635150
  45.9174610  68.3853860  70.0893130  45.6285350  68.7977840  68.6616140
  38.4417540  76.9854320  64.4643730  38.8087670  76.5112890  65.2105070
  38.2522600  77.8595890  64.8052070  31.3058030  71.7298010  60.5937200
  31.0204950  71.3653680  61.4315820  31.2436890  70.9978470  59.9800340
  36.2316910  76.0262960  66.7827940  35.9273980  76.9054940  67.0078300
  37.1863370  76.0862750  66.8185380  40.9796620  70.6227270  57.3150570
  40.1661230  70.1240440  57.2395880  40.7858570  71.4625520  56.8986920
  43.6945010  74.9946920  55.6112730  44.5824630  75.3064150  55.4364070
  43.6650100  74.1219170  55.2193310  32.2880640  76.8665700  67.9299300
  31.9295580  77.5319550  68.5172640  31.9935200  76.0349250  68.3011920
  35.4893760  77.3249940  70.8138850  35.1893900  77.4707120  69.9166670
  36.2605000  76.7655230  70.7212240  45.9659280  76.3058760  55.0792590
  45.8823000  76.7372980  54.2289030  46.6853470  76.7657110  55.5119410
  30.7988690  76.8656960  54.5533900  31.6683540  77.1481760  54.8369820
  30.3079010  77.6792830  54.4382710  33.8635280  68.5967820  59.1464700
  33.7349910  68.5885720  60.0949620  33.0397300  68.9350910  58.7955710
  30.8629210  70.3558940  68.6071400  30.1487730  70.5555860  69.2124010
  31.2824250  69.5798510  68.9786200  42.3567990  72.8481250  66.3572850
  42.7248810  72.0276460  66.6852420  41.4966190  72.9083140  66.7728500
  45.7230020  71.8038190  57.1660410  45.0943180  71.9083860  56.4518640
  45.2281940  72.0234970  57.9554290  37.6914050  74.0824140  58.5818290
  36.9830200  74.5510480  59.0231900  37.9758530  73.4246150  59.2163480
  39.3169980  75.5020840  66.5810820  39.8155230  75.9766660  67.2462670
  39.4592930  74.5784360  66.7880850  41.7229480  70.8074800  60.0214080
  41.5997260  70.8260930  59.0723590  42.6714040  70.8553740  60.1412480
  35.8949070  72.3909220  55.9569000  36.7439600  72.8279370  55.8909190
  35.5280340  72.7029480  56.7841060  46.5236840  71.7188800  67.4239210
  46.0210440  72.4594200  67.7633020  47.3393500  72.1072800  67.1076000
  44.8158850  76.9621980  60.8700570  43.8748990  76.9772210  61.0448260
  45.1302920  76.1757940  61.3160870  33.4887250  76.0766650  55.1137420
  33.5690840  75.1294160  55.2254820  34.3807000  76.4073530  55.2198080
  31.0158050  77.8981570  70.3493590  31.5197070  77.3188850  70.9209820
  30.2765470  78.1821800  70.8869960  33.0481130  76.0411160  71.2443660
  33.0886470  75.7425030  72.1528890  33.9026630  76.4418770  71.0851180
  34.9886940  74.6203260  69.2118150  34.4583400  74.1294210  68.5841490
  35.6575010  75.0487460  68.6776080  44.3587170  76.4268880  70.9798490
  44.9407940  75.6721200  70.8918970  44.5348940  76.9576320  70.2029970
  35.4759240  71.5865630  69.2915440  35.3816110  70.9686380  68.5666310
  34.8956630  72.3131920  69.0645350  38.2420680  70.1438870  66.3242830
  37.7937980  70.1663130  65.4788380  37.6085880  69.7457890  66.9213130
  40.9844130  76.7709380  68.3293110  41.1040340  76.1750520  69.0687950
  41.8438130  76.8079070  67.9094410  43.3232030  77.3246570  66.9055620
  42.7967250  77.8489190  66.3020760  43.6663370  77.9573960  67.5365350
  35.7218420  74.7139940  53.3505330  35.5207480  73.8507300  53.7118670
  35.5510470  74.6273300  52.4126930  37.7512900  73.3130730  69.5868930
  38.3412590  73.0046580  70.2746750  36.9333140  72.8410480  69.7428830
  42.5706330  72.9296540  69.8201950  41.8821850  72.2678080  69.7551940
  43.2912350  72.4834810  70.2650410  43.2006730  69.5248170  55.8792210
  43.4809020  68.6816070  56.2351630  42.4272460  69.7571280  56.3930960
  34.5201220  71.8140560  53.3383210  34.8227120  71.8207990  52.4302360
  35.2595810  71.4638420  53.8350870  37.7386150  70.7575180  54.3239410
  37.3908150  70.0799170  53.7441860  37.9398920  70.2964690  55.1382800
  31.0791790  77.2862830  60.7203780  30.4240630  77.0174470  60.0763480
  31.9169740  77.1767310  60.2705760  44.0282230  72.0804120  54.9422270
  44.4467110  71.8935100  54.1018930  43.7218290  71.2283170  55.2525200
  47.5271960  76.9928260  58.6398070  47.1515560  76.2256190  58.2079360
  46.7975080  77.3750960  59.1273000  32.1167720  77.6715400  65.2607120
  32.4840760  77.5842800  66.1403140  31.5478540  76.9081950  65.1613980
  46.9171580  76.1399780  68.2737590  46.6857670  75.9112530  67.3735540
  47.1776130  77.0599330  68.2282480  31.6683720  74.5824490  69.1665540
  30.7739770  74.5491250  69.5059250  32.2081270  74.7811280  69.9316790
  45.3559650  71.3656210  71.0517290  46.2329830  71.3739610  71.4351290
  45.3680490  70.6287050  70.4409640  30.2929870  74.4961760  56.6629110
  29.3893950  74.7591960  56.4880770  30.7770490  74.7672930  55.8829070
  46.8022920  75.2185750  61.9405310  47.3260400  74.7248400  61.3095480
  47.3882340  75.3536110  62.6852880  46.9812640  75.3025620  65.4624860
  46.0315350  75.2689160  65.5769850  47.1625650  76.2125730  65.2274630
  32.8357080  73.5527300  54.5723490  33.5448780  73.1310520  54.0870770
  32.1197020  73.6202530  53.9406840  32.4831240  69.6066630  53.6126140
  33.2059370  70.1475570  53.9307360  32.7555760  69.3330050  52.7367680
  46.2922890  74.4759100  57.8797720  46.7882010  74.2429970  58.6646600
  46.0938960  73.6370940  57.4635360  32.1723430  68.8572820  63.5148760
  32.8199620  68.3070200  63.0743920  32.5925270  69.1115970  64.3364570
  47.7210050  73.1120050  60.4135400  47.6109330  72.9576090  61.3517670
  48.4817640  72.5840990  60.1710810  46.0675770  69.0514180  66.8718400
  46.7047990  69.6648320  67.2377590  46.2150660  69.0874840  65.9267630
  48.6100320  70.9427970  53.6541540  49.5349630  70.8109150  53.4459830
  48.5876110  71.0220790  54.6077990  48.6838810  71.7138630  56.2798250
  47.8890310  71.6483750  56.8091160  48.8882090  72.6489270  56.2683600
  31.9255430  69.0128490  66.2574080  31.5770250  69.4692310  67.0232260
  31.5943130  68.1185620  66.3396510  39.4380250  70.2040370  69.7793500
  39.3769140  70.7962200  70.5288910  40.3780630  70.0966330  69.6343760
  42.0754810  69.8610430  69.4185790  42.6895220  70.1789720  68.7566870
  42.6204370  69.3759020  70.0381650  32.5976070  68.5404690  69.5324850
  33.1459060  68.3592740  68.7690960  32.6631380  67.7498800  70.0681160
  42.8162850  68.4242570  65.7455080  41.9422690  68.7577680  65.5428010
  42.7073600  67.9515750  66.5706950  43.7234830  70.6313440  67.1296800
  43.3948190  69.8165200  66.7498530  44.6717130  70.5883250  67.0062490
  40.5637670  69.3412410  64.6847990  39.7809460  69.8157910  64.9644750
  40.2700600  68.4367240  64.5761170  45.1158740  70.0435510  62.7297080
  45.5566830  69.9880610  61.8818680  44.8466330  70.9593520  62.8007260
  46.9797310  69.6750750  60.7405900  46.9185710  68.7311970  60.5936920
  47.7589340  69.7830840  61.2859360  31.9078080  69.6459890  57.2061710
  32.6657440  69.7588770  56.6325740  31.4455250  70.4829090  57.1605140
  38.4491890  71.7599160  60.1964020  37.6366400  71.3856050  59.8559900
  38.9533530  71.0044240  60.4985210  42.9516870  68.4241610  61.4347090
  43.5546240  68.9961820  61.9095610  42.2109860  68.9881050  61.2120990
  46.0951470  68.8263170  56.7087370  46.2902100  69.7246620  56.9754800
  45.3081340  68.5950250  57.2020320  34.2803230  70.1723940  55.7463680
  34.8095990  69.3853740  55.6171630  34.9131550  70.8515130  55.9799210
  36.4741070  69.9099080  58.8009070  35.8443810  69.2086390  58.9679200
  35.9346210  70.6703210  58.5842230  36.5996630  69.1883060  71.2361560
  36.3180900  69.6916660  70.4722380  36.9816330  68.3904810  70.8703690
  43.2012090  68.6036640  71.8142030  43.0877540  68.9231250  72.7093550
  44.0181830  69.0049150  71.5179310  42.1070240  76.6229110  42.1776770
  42.0264290  75.7083720  41.9068480  41.6934660  77.1196180  41.4716480
  32.6646060  73.6729830  38.7204190  31.7762760  74.0145800  38.6184070
  32.9487250  73.4730150  37.8285020  30.6279070  76.2735480  44.6043890
  31.1995180  75.5057680  44.6047530  30.6280610  76.5724240  43.6950500
  31.8703940  71.6819840  46.3912820  31.6906780  70.7845590  46.6715580
  31.4684020  72.2291710  47.0659770  40.7102440  73.8835700  44.2925130
  41.0867260  73.0107580  44.1798800  40.6121950  74.2194400  43.4015570
  34.8407450  72.2561330  39.7542570  34.9474200  73.1565060  40.0611330
  33.9299810  72.2079300  39.4637220  44.4926560  71.3786140  41.2253470
  45.3136180  70.8882710  41.2678950  44.5260640  71.9683800  41.9785310
  32.4890610  74.1780340  44.9995160  33.1700720  74.4418710  45.6182560
  32.1738660  73.3381210  45.3333170  36.6815180  75.2247700  44.0867750
  37.1893400  75.7228670  44.7272770  37.2128420  74.4482900  43.9107110
  48.7826110  73.3952890  47.7897100  48.0778280  73.7834600  47.2712210
  49.0484030  74.0903180  48.3918030  34.9651280  69.8646260  48.3531170
  34.9669720  70.3818650  47.5477070  34.1355590  69.3876440  48.3301100
  44.7288040  73.3186520  43.9981010  44.0243610  73.6071410  44.5784120
  45.0900200  74.1286630  43.6380570  34.6466610  71.5756220  46.3601620
  34.9883420  72.4198270  46.0655490  33.7082420  71.7239960  46.4766960
  47.7974960  72.7641310  44.3890220  46.8499870  72.7980290  44.5205650
  48.1224950  73.5780260  44.7739580  38.3294500  69.0638490  42.6846210
  38.6369480  68.5085380  41.9681710  37.3995200  69.1982950  42.5019200
  40.7175260  77.1287320  39.4206330  39.7904540  77.0624700  39.6494800
  40.8700080  78.0667450  39.3061570  40.7044340  73.4004320  36.4173490
  39.7648010  73.5618280  36.5025950  41.0227600  74.1190000  35.8709480
  44.1899110  74.8692160  47.3407390  43.7770290  75.6945870  47.5947380
  43.4575060  74.2837200  47.1483750  36.3231900  77.6552060  42.2026060
  35.9188900  76.9429310  41.7071960  36.4095020  77.3105300  43.0914100
  35.0360520  74.4295270  45.9825100  35.5875110  74.5390610  45.2078350
  35.5504030  74.8032870  46.6980330  46.5054390  69.1837240  35.2455370
  46.1927050  69.2764070  36.1454440  47.2666860  69.7618270  35.1952800
  33.0236530  76.5497040  39.7032710  32.9034130  77.2759130  39.0913980
  32.7137420  75.7799950  39.2260620  47.7155680  73.9208740  51.2229510
  47.0999950  74.4288410  50.6944970  47.3952100  73.0207070  51.1655450
  35.4900190  69.8932110  43.0856380  35.0468340  70.6741650  42.7540900
  36.0485180  70.2162000  43.7927320  39.7770000  72.7600630  48.6891700
  39.3149370  72.9683650  49.5011640  39.3748110  71.9459980  48.3862370
  44.7774510  73.9809580  49.8188360  43.9268100  73.6815330  50.1397430
  44.6176300  74.2251590  48.9072180  41.8724220  75.4811330  51.9187150
  42.1977630  74.6475080  51.5789380  42.6604550  76.0039850  52.0665480
  38.6059010  69.5142810  37.9662210  37.9813190  69.5102680  38.6915520
  38.5189130  68.6473770  37.5698180  37.5276090  70.4379440  44.9445980
  37.8248420  71.3442270  44.8638000  38.0761650  69.9498220  44.3305550
  35.2814410  75.0165680  40.8137630  35.0555330  74.8002850  41.7184250
  34.5006940  75.4494140  40.4683600  42.5112170  75.0229050  39.4128280
  41.9121060  75.7464850  39.2291900  43.0591780  74.9605830  38.6304730
  37.7213620  75.9151260  51.4797900  37.6257220  74.9745990  51.3298300
  38.5645600  76.1366330  51.0845970  41.1177040  73.6592590  41.4431560
  41.5106610  73.9764790  40.6300250  41.4793890  72.7804470  41.5576080
  32.8524160  72.3264930  49.6331680  32.4587550  73.1740140  49.8404460
  32.1642560  71.6891300  49.8240320  39.4269210  72.4099900  52.7028420
  38.7367530  72.2172100  53.3374510  40.1701510  72.6934540  53.2352720
  30.1541210  70.2493390  43.6661760  29.8654260  70.8196250  44.3786740
  30.8986970  69.7697840  44.0292990  30.3411440  74.1913510  34.8764480
  30.2586110  75.1344270  35.0179470  29.9894500  74.0488420  33.9976830
  41.7032180  76.2498340  45.5382340  40.9713300  76.7585150  45.8872440
  41.3056520  75.4328320  45.2371120  38.1409570  72.9252540  43.9434830
  38.1445630  72.4842490  43.0939370  39.0360690  73.2469870  44.0506650
  33.9911950  72.8079030  42.9029040  33.6512000  73.2854260  43.6596090
  33.2289270  72.3544150  42.5430140  38.2029720  73.9264620  36.9341590
  38.3242540  73.8851100  37.8827410  37.8178230  74.7888770  36.7788320
  42.1658090  71.7032020  44.9505280  42.1830830  72.1540670  45.7947130
  41.9173670  70.8037660  45.1638720  37.2151220  76.2365760  36.3324890
  36.6468120  75.7884010  35.7060800  37.9240220  76.5958540  35.7990040
  45.5928840  69.1164200  50.7891660  45.9174610  68.3853860  51.3149640
  45.6285350  68.7977840  49.8872650  38.4417540  76.9854320  45.6900240
  38.8087670  76.5112890  46.4361580  38.2522600  77.8595890  46.0308580
  31.3058030  71.7298010  41.8193710  31.0204950  71.3653680  42.6572330
  31.2436890  70.9978470  41.2056850  36.2316910  76.0262960  48.0084450
  35.9273980  76.9054940  48.2334810  37.1863370  76.0862750  48.0441890
  40.9796620  70.6227270  38.5407080  40.1661230  70.1240440  38.4652390
  40.7858570  71.4625520  38.1243430  43.6945010  74.9946920  36.8369240
  44.5824630  75.3064150  36.6620580  43.6650100  74.1219170  36.4449820
  32.2880640  76.8665700  49.1555810  31.9295580  77.5319550  49.7429150
  31.9935200  76.0349250  49.5268430  35.4893760  77.3249940  52.0395360
  35.1893900  77.4707120  51.1423180  36.2605000  76.7655230  51.9468750
  45.9659280  76.3058760  36.3049100  45.8823000  76.7372980  35.4545540
  46.6853470  76.7657110  36.7375920  30.7988690  76.8656960  35.7790410
  31.6683540  77.1481760  36.0626330  30.3079010  77.6792830  35.6639220
  33.8635280  68.5967820  40.3721210  33.7349910  68.5885720  41.3206130
  33.0397300  68.9350910  40.0212220  30.8629210  70.3558940  49.8327910
  30.1487730  70.5555860  50.4380520  31.2824250  69.5798510  50.2042710
  42.3567990  72.8481250  47.5829360  42.7248810  72.0276460  47.9108930
  41.4966190  72.9083140  47.9985010  45.7230020  71.8038190  38.3916920
  45.0943180  71.9083860  37.6775150  45.2281940  72.0234970  39.1810800
  37.6914050  74.0824140  39.8074800  36.9830200  74.5510480  40.2488410
  37.9758530  73.4246150  40.4419990  39.3169980  75.5020840  47.8067330
  39.8155230  75.9766660  48.4719180  39.4592930  74.5784360  48.0137360
  41.7229480  70.8074800  41.2470590  41.5997260  70.8260930  40.2980100
  42.6714040  70.8553740  41.3668990  35.8949070  72.3909220  37.1825510
  36.7439600  72.8279370  37.1165700  35.5280340  72.7029480  38.0097570
  46.5236840  71.7188800  48.6495720  46.0210440  72.4594200  48.9889530
  47.3393500  72.1072800  48.3332510  44.8158850  76.9621980  42.0957080
  43.8748990  76.9772210  42.2704770  45.1302920  76.1757940  42.5417380
  33.4887250  76.0766650  36.3393930  33.5690840  75.1294160  36.4511330
  34.3807000  76.4073530  36.4454590  31.0158050  77.8981570  51.5750100
  31.5197070  77.3188850  52.1466330  30.2765470  78.1821800  52.1126470
  33.0481130  76.0411160  52.4700170  33.0886470  75.7425030  53.3785400
  33.9026630  76.4418770  52.3107690  34.9886940  74.6203260  50.4374660
  34.4583400  74.1294210  49.8098000  35.6575010  75.0487460  49.9032590
  44.3587170  76.4268880  52.2055000  44.9407940  75.6721200  52.1175480
  44.5348940  76.9576320  51.4286480  35.4759240  71.5865630  50.5171950
  35.3816110  70.9686380  49.7922820  34.8956630  72.3131920  50.2901860
  38.2420680  70.1438870  47.5499340  37.7937980  70.1663130  46.7044890
  37.6085880  69.7457890  48.1469640  40.9844130  76.7709380  49.5549620
  41.1040340  76.1750520  50.2944460  41.8438130  76.8079070  49.1350920
  43.3232030  77.3246570  48.1312130  42.7967250  77.8489190  47.5277270
  43.6663370  77.9573960  48.7621860  35.7218420  74.7139940  34.5761840
  35.5207480  73.8507300  34.9375180  35.5510470  74.6273300  33.6383440
  37.7512900  73.3130730  50.8125440  38.3412590  73.0046580  51.5003260
  36.9333140  72.8410480  50.9685340  42.5706330  72.9296540  51.0458460
  41.8821850  72.2678080  50.9808450  43.2912350  72.4834810  51.4906920
  43.2006730  69.5248170  37.1048720  43.4809020  68.6816070  37.4608140
  42.4272460  69.7571280  37.6187470  34.5201220  71.8140560  34.5639720
  34.8227120  71.8207990  33.6558870  35.2595810  71.4638420  35.0607380
  37.7386150  70.7575180  35.5495920  37.3908150  70.0799170  34.9698370
  37.9398920  70.2964690  36.3639310  31.0791790  77.2862830  41.9460290
  30.4240630  77.0174470  41.3019990  31.9169740  77.1767310  41.4962270
  44.0282230  72.0804120  36.1678780  44.4467110  71.8935100  35.3275440
  43.7218290  71.2283170  36.4781710  47.5271960  76.9928260  39.8654580
  47.1515560  76.2256190  39.4335870  46.7975080  77.3750960  40.3529510
  32.1167720  77.6715400  46.4863630  32.4840760  77.5842800  47.3659650
  31.5478540  76.9081950  46.3870490  46.9171580  76.1399780  49.4994100
  46.6857670  75.9112530  48.5992050  47.1776130  77.0599330  49.4538990
  31.6683720  74.5824490  50.3922050  30.7739770  74.5491250  50.7315760
  32.2081270  74.7811280  51.1573300  45.3559650  71.3656210  52.2773800
  46.2329830  71.3739610  52.6607800  45.3680490  70.6287050  51.6666150
  30.2929870  74.4961760  37.8885620  29.3893950  74.7591960  37.7137280
  30.7770490  74.7672930  37.1085580  46.8022920  75.2185750  43.1661820
  47.3260400  74.7248400  42.5351990  47.3882340  75.3536110  43.9109390
  46.9812640  75.3025620  46.6881370  46.0315350  75.2689160  46.8026360
  47.1625650  76.2125730  46.4531140  32.8357080  73.5527300  35.7980000
  33.5448780  73.1310520  35.3127280  32.1197020  73.6202530  35.1663350
  32.4831240  69.6066630  34.8382650  33.2059370  70.1475570  35.1563870
  32.7555760  69.3330050  33.9624190  46.2922890  74.4759100  39.1054230
  46.7882010  74.2429970  39.8903110  46.0938960  73.6370940  38.6891870
  32.1723430  68.8572820  44.7405270  32.8199620  68.3070200  44.3000430
  32.5925270  69.1115970  45.5621080  47.7210050  73.1120050  41.6391910
  47.6109330  72.9576090  42.5774180  48.4817640  72.5840990  41.3967320
  46.0675770  69.0514180  48.0974910  46.7047990  69.6648320  48.4634100
  46.2150660  69.0874840  47.1524140  48.6100320  70.9427970  34.8798050
  49.5349630  70.8109150  34.6716340  48.5876110  71.0220790  35.8334500
  48.6838810  71.7138630  37.5054760  47.8890310  71.6483750  38.0347670
  48.8882090  72.6489270  37.4940110  31.9255430  69.0128490  47.4830590
  31.5770250  69.4692310  48.2488770  31.5943130  68.1185620  47.5653020
  39.4380250  70.2040370  51.0050010  39.3769140  70.7962200  51.7545420
  40.3780630  70.0966330  50.8600270  42.0754810  69.8610430  50.6442300
  42.6895220  70.1789720  49.9823380  42.6204370  69.3759020  51.2638160
  32.5976070  68.5404690  50.7581360  33.1459060  68.3592740  49.9947470
  32.6631380  67.7498800  51.2937670  42.8162850  68.4242570  46.9711590
  41.9422690  68.7577680  46.7684520  42.7073600  67.9515750  47.7963460
  43.7234830  70.6313440  48.3553310  43.3948190  69.8165200  47.9755040
  44.6717130  70.5883250  48.2319000  40.5637670  69.3412410  45.9104500
  39.7809460  69.8157910  46.1901260  40.2700600  68.4367240  45.8017680
  45.1158740  70.0435510  43.9553590  45.5566830  69.9880610  43.1075190
  44.8466330  70.9593520  44.0263770  46.9797310  69.6750750  41.9662410
  46.9185710  68.7311970  41.8193430  47.7589340  69.7830840  42.5115870
  31.9078080  69.6459890  38.4318220  32.6657440  69.7588770  37.8582250
  31.4455250  70.4829090  38.3861650  38.4491890  71.7599160  41.4220530
  37.6366400  71.3856050  41.0816410  38.9533530  71.0044240  41.7241720
  42.9516870  68.4241610  42.6603600  43.5546240  68.9961820  43.1352120
  42.2109860  68.9881050  42.4377500  46.0951470  68.8263170  37.9343880
  46.2902100  69.7246620  38.2011310  45.3081340  68.5950250  38.4276830
  34.2803230  70.1723940  36.9720190  34.8095990  69.3853740  36.8428140
  34.9131550  70.8515130  37.2055720  36.4741070  69.9099080  40.0265580
  35.8443810  69.2086390  40.1935710  35.9346210  70.6703210  39.8098740
  36.5996630  69.1883060  52.4618070  36.3180900  69.6916660  51.6978890
  36.9816330  68.3904810  52.0960200  43.2012090  68.6036640  53.0398540
  43.0877540  68.9231250  53.9350060  44.0181830  69.0049150  52.7435820
  42.1070240  76.6229110  23.4033280  42.0264290  75.7083720  23.1324990
  41.6934660  77.1196180  22.6972990  32.6646060  73.6729830  19.9460700
  31.7762760  74.0145800  19.8440580  32.9487250  73.4730150  19.0541530
  30.6279070  76.2735480  25.8300400  31.1995180  75.5057680  25.8304040
  30.6280610  76.5724240  24.9207010  31.8703940  71.6819840  27.6169330
  31.6906780  70.7845590  27.8972090  31.4684020  72.2291710  28.2916280
  40.7102440  73.8835700  25.5181640  41.0867260  73.0107580  25.4055310
  40.6121950  74.2194400  24.6272080  34.8407450  72.2561330  20.9799080
  34.9474200  73.1565060  21.2867840  33.9299810  72.2079300  20.6893730
  44.4926560  71.3786140  22.4509980  45.3136180  70.8882710  22.4935460
  44.5260640  71.9683800  23.2041820  32.4890610  74.1780340  26.2251670
  33.1700720  74.4418710  26.8439070  32.1738660  73.3381210  26.5589680
  36.6815180  75.2247700  25.3124260  37.1893400  75.7228670  25.9529280
  37.2128420  74.4482900  25.1363620  48.7826110  73.3952890  29.0153610
  48.0778280  73.7834600  28.4968720  49.0484030  74.0903180  29.6174540
  34.9651280  69.8646260  29.5787680  34.9669720  70.3818650  28.7733580
  34.1355590  69.3876440  29.5557610  44.7288040  73.3186520  25.2237520
  44.0243610  73.6071410  25.8040630  45.0900200  74.1286630  24.8637080
  34.6466610  71.5756220  27.5858130  34.9883420  72.4198270  27.2912000
  33.7082420  71.7239960  27.7023470  47.7974960  72.7641310  25.6146730
  46.8499870  72.7980290  25.7462160  48.1224950  73.5780260  25.9996090
  38.3294500  69.0638490  23.9102720  38.6369480  68.5085380  23.1938220
  37.3995200  69.1982950  23.7275710  40.7175260  77.1287320  20.6462840
  39.7904540  77.0624700  20.8751310  40.8700080  78.0667450  20.5318080
  40.7044340  73.4004320  17.6430000  39.7648010  73.5618280  17.7282460
  41.0227600  74.1190000  17.0965990  44.1899110  74.8692160  28.5663900
  43.7770290  75.6945870  28.8203890  43.4575060  74.2837200  28.3740260
  36.3231900  77.6552060  23.4282570  35.9188900  76.9429310  22.9328470
  36.4095020  77.3105300  24.3170610  35.0360520  74.4295270  27.2081610
  35.5875110  74.5390610  26.4334860  35.5504030  74.8032870  27.9236840
  46.5054390  69.1837240  16.4711880  46.1927050  69.2764070  17.3710950
  47.2666860  69.7618270  16.4209310  33.0236530  76.5497040  20.9289220
  32.9034130  77.2759130  20.3170490  32.7137420  75.7799950  20.4517130
  47.7155680  73.9208740  32.4486020  47.0999950  74.4288410  31.9201480
  47.3952100  73.0207070  32.3911960  35.4900190  69.8932110  24.3112890
  35.0468340  70.6741650  23.9797410  36.0485180  70.2162000  25.0183830
  39.7770000  72.7600630  29.9148210  39.3149370  72.9683650  30.7268150
  39.3748110  71.9459980  29.6118880  44.7774510  73.9809580  31.0444870
  43.9268100  73.6815330  31.3653940  44.6176300  74.2251590  30.1328690
  41.8724220  75.4811330  33.1443660  42.1977630  74.6475080  32.8045890
  42.6604550  76.0039850  33.2921990  38.6059010  69.5142810  19.1918720
  37.9813190  69.5102680  19.9172030  38.5189130  68.6473770  18.7954690
  37.5276090  70.4379440  26.1702490  37.8248420  71.3442270  26.0894510
  38.0761650  69.9498220  25.5562060  35.2814410  75.0165680  22.0394140
  35.0555330  74.8002850  22.9440760  34.5006940  75.4494140  21.6940110
  42.5112170  75.0229050  20.6384790  41.9121060  75.7464850  20.4548410
  43.0591780  74.9605830  19.8561240  37.7213620  75.9151260  32.7054410
  37.6257220  74.9745990  32.5554810  38.5645600  76.1366330  32.3102480
  41.1177040  73.6592590  22.6688070  41.5106610  73.9764790  21.8556760
  41.4793890  72.7804470  22.7832590  32.8524160  72.3264930  30.8588190
  32.4587550  73.1740140  31.0660970  32.1642560  71.6891300  31.0496830
  39.4269210  72.4099900  33.9284930  38.7367530  72.2172100  34.5631020
  40.1701510  72.6934540  34.4609230  30.1541210  70.2493390  24.8918270
  29.8654260  70.8196250  25.6043250  30.8986970  69.7697840  25.2549500
  30.3411440  74.1913510  16.1020990  30.2586110  75.1344270  16.2435980
  29.9894500  74.0488420  15.2233340  41.7032180  76.2498340  26.7638850
  40.9713300  76.7585150  27.1128950  41.3056520  75.4328320  26.4627630
  38.1409570  72.9252540  25.1691340  38.1445630  72.4842490  24.3195880
  39.0360690  73.2469870  25.2763160  33.9911950  72.8079030  24.1285550
  33.6512000  73.2854260  24.8852600  33.2289270  72.3544150  23.7686650
  38.2029720  73.9264620  18.1598100  38.3242540  73.8851100  19.1083920
  37.8178230  74.7888770  18.0044830  42.1658090  71.7032020  26.1761790
  42.1830830  72.1540670  27.0203640  41.9173670  70.8037660  26.3895230
  37.2151220  76.2365760  17.5581400  36.6468120  75.7884010  16.9317310
  37.9240220  76.5958540  17.0246550  45.5928840  69.1164200  32.0148170
  45.9174610  68.3853860  32.5406150  45.6285350  68.7977840  31.1129160
  38.4417540  76.9854320  26.9156750  38.8087670  76.5112890  27.6618090
  38.2522600  77.8595890  27.2565090  31.3058030  71.7298010  23.0450220
  31.0204950  71.3653680  23.8828840  31.2436890  70.9978470  22.4313360
  36.2316910  76.0262960  29.2340960  35.9273980  76.9054940  29.4591320
  37.1863370  76.0862750  29.2698400  40.9796620  70.6227270  19.7663590
  40.1661230  70.1240440  19.6908900  40.7858570  71.4625520  19.3499940
  43.6945010  74.9946920  18.0625750  44.5824630  75.3064150  17.8877090
  43.6650100  74.1219170  17.6706330  32.2880640  76.8665700  30.3812320
  31.9295580  77.5319550  30.9685660  31.9935200  76.0349250  30.7524940
  35.4893760  77.3249940  33.2651870  35.1893900  77.4707120  32.3679690
  36.2605000  76.7655230  33.1725260  45.9659280  76.3058760  17.5305610
  45.8823000  76.7372980  16.6802050  46.6853470  76.7657110  17.9632430
  30.7988690  76.8656960  17.0046920  31.6683540  77.1481760  17.2882840
  30.3079010  77.6792830  16.8895730  33.8635280  68.5967820  21.5977720
  33.7349910  68.5885720  22.5462640  33.0397300  68.9350910  21.2468730
  30.8629210  70.3558940  31.0584420  30.1487730  70.5555860  31.6637030
  31.2824250  69.5798510  31.4299220  42.3567990  72.8481250  28.8085870
  42.7248810  72.0276460  29.1365440  41.4966190  72.9083140  29.2241520
  45.7230020  71.8038190  19.6173430  45.0943180  71.9083860  18.9031660
  45.2281940  72.0234970  20.4067310  37.6914050  74.0824140  21.0331310
  36.9830200  74.5510480  21.4744920  37.9758530  73.4246150  21.6676500
  39.3169980  75.5020840  29.0323840  39.8155230  75.9766660  29.6975690
  39.4592930  74.5784360  29.2393870  41.7229480  70.8074800  22.4727100
  41.5997260  70.8260930  21.5236610  42.6714040  70.8553740  22.5925500
  35.8949070  72.3909220  18.4082020  36.7439600  72.8279370  18.3422210
  35.5280340  72.7029480  19.2354080  46.5236840  71.7188800  29.8752230
  46.0210440  72.4594200  30.2146040  47.3393500  72.1072800  29.5589020
  44.8158850  76.9621980  23.3213590  43.8748990  76.9772210  23.4961280
  45.1302920  76.1757940  23.7673890  33.4887250  76.0766650  17.5650440
  33.5690840  75.1294160  17.6767840  34.3807000  76.4073530  17.6711100
  31.0158050  77.8981570  32.8006610  31.5197070  77.3188850  33.3722840
  30.2765470  78.1821800  33.3382980  33.0481130  76.0411160  33.6956680
  33.0886470  75.7425030  34.6041910  33.9026630  76.4418770  33.5364200
  34.9886940  74.6203260  31.6631170  34.4583400  74.1294210  31.0354510
  35.6575010  75.0487460  31.1289100  44.3587170  76.4268880  33.4311510
  44.9407940  75.6721200  33.3431990  44.5348940  76.9576320  32.6542990
  35.4759240  71.5865630  31.7428460  35.3816110  70.9686380  31.0179330
  34.8956630  72.3131920  31.5158370  38.2420680  70.1438870  28.7755850
  37.7937980  70.1663130  27.9301400  37.6085880  69.7457890  29.3726150
  40.9844130  76.7709380  30.7806130  41.1040340  76.1750520  31.5200970
  41.8438130  76.8079070  30.3607430  43.3232030  77.3246570  29.3568640
  42.7967250  77.8489190  28.7533780  43.6663370  77.9573960  29.9878370
  35.7218420  74.7139940  15.8018350  35.5207480  73.8507300  16.1631690
  35.5510470  74.6273300  14.8639950  37.7512900  73.3130730  32.0381950
  38.3412590  73.0046580  32.7259770  36.9333140  72.8410480  32.1941850
  42.5706330  72.9296540  32.2714970  41.8821850  72.2678080  32.2064960
  43.2912350  72.4834810  32.7163430  43.2006730  69.5248170  18.3305230
  43.4809020  68.6816070  18.6864650  42.4272460  69.7571280  18.8443980
  34.5201220  71.8140560  15.7896230  34.8227120  71.8207990  14.8815380
  35.2595810  71.4638420  16.2863890  37.7386150  70.7575180  16.7752430
  37.3908150  70.0799170  16.1954880  37.9398920  70.2964690  17.5895820
  31.0791790  77.2862830  23.1716800  30.4240630  77.0174470  22.5276500
  31.9169740  77.1767310  22.7218780  44.0282230  72.0804120  17.3935290
  44.4467110  71.8935100  16.5531950  43.7218290  71.2283170  17.7038220
  47.5271960  76.9928260  21.0911090  47.1515560  76.2256190  20.6592380
  46.7975080  77.3750960  21.5786020  32.1167720  77.6715400  27.7120140
  32.4840760  77.5842800  28.5916160  31.5478540  76.9081950  27.6127000
  46.9171580  76.1399780  30.7250610  46.6857670  75.9112530  29.8248560
  47.1776130  77.0599330  30.6795500  31.6683720  74.5824490  31.6178560
  30.7739770  74.5491250  31.9572270  32.2081270  74.7811280  32.3829810
  45.3559650  71.3656210  33.5030310  46.2329830  71.3739610  33.8864310
  45.3680490  70.6287050  32.8922660  30.2929870  74.4961760  19.1142130
  29.3893950  74.7591960  18.9393790  30.7770490  74.7672930  18.3342090
  46.8022920  75.2185750  24.3918330  47.3260400  74.7248400  23.7608500
  47.3882340  75.3536110  25.1365900  46.9812640  75.3025620  27.9137880
  46.0315350  75.2689160  28.0282870  47.1625650  76.2125730  27.6787650
  32.8357080  73.5527300  17.0236510  33.5448780  73.1310520  16.5383790
  32.1197020  73.6202530  16.3919860  32.4831240  69.6066630  16.0639160
  33.2059370  70.1475570  16.3820380  32.7555760  69.3330050  15.1880700
  46.2922890  74.4759100  20.3310740  46.7882010  74.2429970  21.1159620
  46.0938960  73.6370940  19.9148380  32.1723430  68.8572820  25.9661780
  32.8199620  68.3070200  25.5256940  32.5925270  69.1115970  26.7877590
  47.7210050  73.1120050  22.8648420  47.6109330  72.9576090  23.8030690
  48.4817640  72.5840990  22.6223830  46.0675770  69.0514180  29.3231420
  46.7047990  69.6648320  29.6890610  46.2150660  69.0874840  28.3780650
  48.6100320  70.9427970  16.1054560  49.5349630  70.8109150  15.8972850
  48.5876110  71.0220790  17.0591010  48.6838810  71.7138630  18.7311270
  47.8890310  71.6483750  19.2604180  48.8882090  72.6489270  18.7196620
  31.9255430  69.0128490  28.7087100  31.5770250  69.4692310  29.4745280
  31.5943130  68.1185620  28.7909530  39.4380250  70.2040370  32.2306520
  39.3769140  70.7962200  32.9801930  40.3780630  70.0966330  32.0856780
  42.0754810  69.8610430  31.8698810  42.6895220  70.1789720  31.2079890
  42.6204370  69.3759020  32.4894670  32.5976070  68.5404690  31.9837870
  33.1459060  68.3592740  31.2203980  32.6631380  67.7498800  32.5194180
  42.8162850  68.4242570  28.1968100  41.9422690  68.7577680  27.9941030
  42.7073600  67.9515750  29.0219970  43.7234830  70.6313440  29.5809820
  43.3948190  69.8165200  29.2011550  44.6717130  70.5883250  29.4575510
  40.5637670  69.3412410  27.1361010  39.7809460  69.8157910  27.4157770
  40.2700600  68.4367240  27.0274190  45.1158740  70.0435510  25.1810100
  45.5566830  69.9880610  24.3331700  44.8466330  70.9593520  25.2520280
  46.9797310  69.6750750  23.1918920  46.9185710  68.7311970  23.0449940
  47.7589340  69.7830840  23.7372380  31.9078080  69.6459890  19.6574730
  32.6657440  69.7588770  19.0838760  31.4455250  70.4829090  19.6118160
  38.4491890  71.7599160  22.6477040  37.6366400  71.3856050  22.3072920
  38.9533530  71.0044240  22.9498230  42.9516870  68.4241610  23.8860110
  43.5546240  68.9961820  24.3608630  42.2109860  68.9881050  23.6634010
  46.0951470  68.8263170  19.1600390  46.2902100  69.7246620  19.4267820
  45.3081340  68.5950250  19.6533340  34.2803230  70.1723940  18.1976700
  34.8095990  69.3853740  18.0684650  34.9131550  70.8515130  18.4312230
  36.4741070  69.9099080  21.2522090  35.8443810  69.2086390  21.4192220
  35.9346210  70.6703210  21.0355250  36.5996630  69.1883060  33.6874580
  36.3180900  69.6916660  32.9235400  36.9816330  68.3904810  33.3216710
  43.2012090  68.6036640  34.2655050  43.0877540  68.9231250  35.1606570
  44.0181830  69.0049150  33.9692330  42.1070240  76.6229110   4.6289790
  42.0264290  75.7083720   4.3581500  41.6934660  77.1196180   3.9229500
  30.6279070  76.2735480   7.0556910  31.1995180  75.5057680   7.0560550
  30.6280610  76.5724240   6.1463520  31.8703940  71.6819840   8.8425840
  31.6906780  70.7845590   9.1228600  31.4684020  72.2291710   9.5172790
  40.7102440  73.8835700   6.7438150  41.0867260  73.0107580   6.6311820
  40.6121950  74.2194400   5.8528590  34.8407450  72.2561330   2.2055590
  34.9474200  73.1565060   2.5124350  33.9299810  72.2079300   1.9150240
  44.4926560  71.3786140   3.6766490  45.3136180  70.8882710   3.7191970
  44.5260640  71.9683800   4.4298330  32.4890610  74.1780340   7.4508180
  33.1700720  74.4418710   8.0695580  32.1738660  73.3381210   7.7846190
  36.6815180  75.2247700   6.5380770  37.1893400  75.7228670   7.1785790
  37.2128420  74.4482900   6.3620130  48.7826110  73.3952890  10.2410120
  48.0778280  73.7834600   9.7225230  49.0484030  74.0903180  10.8431050
  34.9651280  69.8646260  10.8044190  34.9669720  70.3818650   9.9990090
  34.1355590  69.3876440  10.7814120  44.7288040  73.3186520   6.4494030
  44.0243610  73.6071410   7.0297140  45.0900200  74.1286630   6.0893590
  34.6466610  71.5756220   8.8114640  34.9883420  72.4198270   8.5168510
  33.7082420  71.7239960   8.9279980  47.7974960  72.7641310   6.8403240
  46.8499870  72.7980290   6.9718670  48.1224950  73.5780260   7.2252600
  38.3294500  69.0638490   5.1359230  38.6369480  68.5085380   4.4194730
  37.3995200  69.1982950   4.9532220  40.7175260  77.1287320   1.8719350
  39.7904540  77.0624700   2.1007820  40.8700080  78.0667450   1.7574590
  44.1899110  74.8692160   9.7920410  43.7770290  75.6945870  10.0460400
  43.4575060  74.2837200   9.5996770  36.3231900  77.6552060   4.6539080
  35.9188900  76.9429310   4.1584980  36.4095020  77.3105300   5.5427120
  35.0360520  74.4295270   8.4338120  35.5875110  74.5390610   7.6591370
  35.5504030  74.8032870   9.1493350  33.0236530  76.5497040   2.1545730
  32.9034130  77.2759130   1.5427000  32.7137420  75.7799950   1.6773640
  47.7155680  73.9208740  13.6742530  47.0999950  74.4288410  13.1457990
  47.3952100  73.0207070  13.6168470  35.4900190  69.8932110   5.5369400
  35.0468340  70.6741650   5.2053920  36.0485180  70.2162000   6.2440340
  39.7770000  72.7600630  11.1404720  39.3149370  72.9683650  11.9524660
  39.3748110  71.9459980  10.8375390  44.7774510  73.9809580  12.2701380
  43.9268100  73.6815330  12.5910450  44.6176300  74.2251590  11.3585200
  41.8724220  75.4811330  14.3700170  42.1977630  74.6475080  14.0302400
  42.6604550  76.0039850  14.5178500  37.5276090  70.4379440   7.3959000
  37.8248420  71.3442270   7.3151020  38.0761650  69.9498220   6.7818570
  35.2814410  75.0165680   3.2650650  35.0555330  74.8002850   4.1697270
  34.5006940  75.4494140   2.9196620  37.7213620  75.9151260  13.9310920
  37.6257220  74.9745990  13.7811320  38.5645600  76.1366330  13.5358990
  41.1177040  73.6592590   3.8944580  41.5106610  73.9764790   3.0813270
  41.4793890  72.7804470   4.0089100  32.8524160  72.3264930  12.0844700
  32.4587550  73.1740140  12.2917480  32.1642560  71.6891300  12.2753340
  39.4269210  72.4099900  15.1541440  38.7367530  72.2172100  15.7887530
  40.1701510  72.6934540  15.6865740  30.1541210  70.2493390   6.1174780
  29.8654260  70.8196250   6.8299760  30.8986970  69.7697840   6.4806010
  41.7032180  76.2498340   7.9895360  40.9713300  76.7585150   8.3385460
  41.3056520  75.4328320   7.6884140  38.1409570  72.9252540   6.3947850
  38.1445630  72.4842490   5.5452390  39.0360690  73.2469870   6.5019670
  33.9911950  72.8079030   5.3542060  33.6512000  73.2854260   6.1109110
  33.2289270  72.3544150   4.9943160  42.1658090  71.7032020   7.4018300
  42.1830830  72.1540670   8.2460150  41.9173670  70.8037660   7.6151740
  45.5928840  69.1164200  13.2404680  45.9174610  68.3853860  13.7662660
  45.6285350  68.7977840  12.3385670  38.4417540  76.9854320   8.1413260
  38.8087670  76.5112890   8.8874600  38.2522600  77.8595890   8.4821600
  31.3058030  71.7298010   4.2706730  31.0204950  71.3653680   5.1085350
  31.2436890  70.9978470   3.6569870  36.2316910  76.0262960  10.4597470
  35.9273980  76.9054940  10.6847830  37.1863370  76.0862750  10.4954910
  32.2880640  76.8665700  11.6068830  31.9295580  77.5319550  12.1942170
  31.9935200  76.0349250  11.9781450  35.4893760  77.3249940  14.4908380
  35.1893900  77.4707120  13.5936200  36.2605000  76.7655230  14.3981770
  33.8635280  68.5967820   2.8234230  33.7349910  68.5885720   3.7719150
  33.0397300  68.9350910   2.4725240  30.8629210  70.3558940  12.2840930
  30.1487730  70.5555860  12.8893540  31.2824250  69.5798510  12.6555730
  42.3567990  72.8481250  10.0342380  42.7248810  72.0276460  10.3621950
  41.4966190  72.9083140  10.4498030  37.6914050  74.0824140   2.2587820
  36.9830200  74.5510480   2.7001430  37.9758530  73.4246150   2.8933010
  39.3169980  75.5020840  10.2580350  39.8155230  75.9766660  10.9232200
  39.4592930  74.5784360  10.4650380  41.7229480  70.8074800   3.6983610
  41.5997260  70.8260930   2.7493120  42.6714040  70.8553740   3.8182010
  46.5236840  71.7188800  11.1008740  46.0210440  72.4594200  11.4402550
  47.3393500  72.1072800  10.7845530  44.8158850  76.9621980   4.5470100
  43.8748990  76.9772210   4.7217790  45.1302920  76.1757940   4.9930400
  31.0158050  77.8981570  14.0263120  31.5197070  77.3188850  14.5979350
  30.2765470  78.1821800  14.5639490  33.0481130  76.0411160  14.9213190
  33.0886470  75.7425030  15.8298420  33.9026630  76.4418770  14.7620710
  34.9886940  74.6203260  12.8887680  34.4583400  74.1294210  12.2611020
  35.6575010  75.0487460  12.3545610  44.3587170  76.4268880  14.6568020
  44.9407940  75.6721200  14.5688500  44.5348940  76.9576320  13.8799500
  35.4759240  71.5865630  12.9684970  35.3816110  70.9686380  12.2435840
  34.8956630  72.3131920  12.7414880  38.2420680  70.1438870  10.0012360
  37.7937980  70.1663130   9.1557910  37.6085880  69.7457890  10.5982660
  40.9844130  76.7709380  12.0062640  41.1040340  76.1750520  12.7457480
  41.8438130  76.8079070  11.5863940  43.3232030  77.3246570  10.5825150
  42.7967250  77.8489190   9.9790290  43.6663370  77.9573960  11.2134880
  37.7512900  73.3130730  13.2638460  38.3412590  73.0046580  13.9516280
  36.9333140  72.8410480  13.4198360  42.5706330  72.9296540  13.4971480
  41.8821850  72.2678080  13.4321470  43.2912350  72.4834810  13.9419940
  31.0791790  77.2862830   4.3973310  30.4240630  77.0174470   3.7533010
  31.9169740  77.1767310   3.9475290  47.5271960  76.9928260   2.3167600
  47.1515560  76.2256190   1.8848890  46.7975080  77.3750960   2.8042530
  32.1167720  77.6715400   8.9376650  32.4840760  77.5842800   9.8172670
  31.5478540  76.9081950   8.8383510  46.9171580  76.1399780  11.9507120
  46.6857670  75.9112530  11.0505070  47.1776130  77.0599330  11.9052010
  31.6683720  74.5824490  12.8435070  30.7739770  74.5491250  13.1828780
  32.2081270  74.7811280  13.6086320  45.3559650  71.3656210  14.7286820
  46.2329830  71.3739610  15.1120820  45.3680490  70.6287050  14.1179170
  46.8022920  75.2185750   5.6174840  47.3260400  74.7248400   4.9865010
  47.3882340  75.3536110   6.3622410  46.9812640  75.3025620   9.1394390
  46.0315350  75.2689160   9.2539380  47.1625650  76.2125730   8.9044160
  32.1723430  68.8572820   7.1918290  32.8199620  68.3070200   6.7513450
  32.5925270  69.1115970   8.0134100  47.7210050  73.1120050   4.0904930
  47.6109330  72.9576090   5.0287200  48.4817640  72.5840990   3.8480340
  46.0675770  69.0514180  10.5487930  46.7047990  69.6648320  10.9147120
  46.2150660  69.0874840   9.6037160  31.9255430  69.0128490   9.9343610
  31.5770250  69.4692310  10.7001790  31.5943130  68.1185620  10.0166040
  39.4380250  70.2040370  13.4563030  39.3769140  70.7962200  14.2058440
  40.3780630  70.0966330  13.3113290  42.0754810  69.8610430  13.0955320
  42.6895220  70.1789720  12.4336400  42.6204370  69.3759020  13.7151180
  32.5976070  68.5404690  13.2094380  33.1459060  68.3592740  12.4460490
  32.6631380  67.7498800  13.7450690  42.8162850  68.4242570   9.4224610
  41.9422690  68.7577680   9.2197540  42.7073600  67.9515750  10.2476480
  43.7234830  70.6313440  10.8066330  43.3948190  69.8165200  10.4268060
  44.6717130  70.5883250  10.6832020  40.5637670  69.3412410   8.3617520
  39.7809460  69.8157910   8.6414280  40.2700600  68.4367240   8.2530700
  45.1158740  70.0435510   6.4066610  45.5566830  69.9880610   5.5588210
  44.8466330  70.9593520   6.4776790  46.9797310  69.6750750   4.4175430
  46.9185710  68.7311970   4.2706450  47.7589340  69.7830840   4.9628890
  38.4491890  71.7599160   3.8733550  37.6366400  71.3856050   3.5329430
  38.9533530  71.0044240   4.1754740  42.9516870  68.4241610   5.1116620
  43.5546240  68.9961820   5.5865140  42.2109860  68.9881050   4.8890520
  36.4741070  69.9099080   2.4778600  35.8443810  69.2086390   2.6448730
  35.9346210  70.6703210   2.2611760  36.5996630  69.1883060  14.9131090
  36.3180900  69.6916660  14.1491910  36.9816330  68.3904810  14.5473220
  43.2012090  68.6036640  15.4911560  43.0877540  68.9231250  16.3863080
  44.0181830  69.0049150  15.1948840  42.1070240  57.8485620  79.7263750
  42.0264290  56.9340230  79.4555460  41.6934660  58.3452690  79.0203460
  40.2388280  59.6264640  81.6073020  39.4630380  59.1465080  81.8971590
  40.8901210  58.9470290  81.4329180  34.2554110  59.9384450  82.4848780
  33.4238990  59.6833160  82.8845290  34.8635090  60.0095220  83.2206700
  44.2595710  64.0324830  80.3872150  43.7977240  63.2612070  80.7159320
  45.0721260  64.0590900  80.8924600  34.2355370  63.9724540  82.6806800
  34.5383410  63.0822280  82.5017020  34.9798960  64.5294760  82.4529050
  32.6646060  54.8986340  76.2691170  31.7762760  55.2402310  76.1671050
  32.9487250  54.6986660  75.3772000  30.6279070  57.4991990  82.1530870
  31.1995180  56.7314190  82.1534510  30.6280610  57.7980750  81.2437480
  40.4859020  66.3182840  80.0076140  39.8670460  66.7740340  79.4370580
  41.3410800  66.4734300  79.6065840  39.6797270  62.3021830  81.6143180
  39.6105550  61.3611770  81.4532310  40.4417130  62.3923240  82.1865750
  31.8703940  52.9076350  83.9399800  31.6906780  52.0102100  84.2202560
  31.4684020  53.4548220  84.6146750  40.7102440  55.1092210  81.8412110
  41.0867260  54.2364090  81.7285780  40.6121950  55.4450910  80.9502550
  34.8407450  53.4817840  77.3029550  34.9474200  54.3821570  77.6098310
  33.9299810  53.4335810  77.0124200  44.4926560  52.6042650  78.7740450
  45.3136180  52.1139220  78.8165930  44.5260640  53.1940310  79.5272290
  32.4890610  55.4036850  82.5482140  33.1700720  55.6675220  83.1669540
  32.1738660  54.5637720  82.8820150  36.6815180  56.4504210  81.6354730
  37.1893400  56.9485180  82.2759750  37.2128420  55.6739410  81.4594090
  48.7826110  54.6209400  85.3384080  48.0778280  55.0091110  84.8199190
  49.0484030  55.3159690  85.9405010  34.9651280  51.0902770  85.9018150
  34.9669720  51.6075160  85.0964050  34.1355590  50.6132950  85.8788080
  41.3522370  61.2022080  77.4008050  40.7339640  61.6671530  76.8370770
  41.8645620  61.8949560  77.8177560  36.2154130  60.7297950  84.0791650
  35.8823510  61.3566870  84.7212720  36.3920810  61.2559830  83.2993320
  44.7288040  54.5443030  81.5467990  44.0243610  54.8327920  82.1271100
  45.0900200  55.3543140  81.1867550  34.6466610  52.8012730  83.9088600
  34.9883420  53.6454780  83.6142470  33.7082420  52.9496470  84.0253940
  35.4273230  62.6978750  85.8940830  36.0447230  63.3729830  85.6125280
  34.5666350  63.1066730  85.8028330  30.7205570  61.8878610  74.7747680
  30.3433550  62.3765710  74.0432580  30.9778640  62.5603890  75.4054210
  46.3450820  64.1618160  83.8095470  45.6614340  64.8317270  83.8012140
  46.8845110  64.3598810  83.0440330  47.7974960  53.9897820  81.9377200
  46.8499870  54.0236800  82.0692630  48.1224950  54.8036770  82.3226560
  38.3294500  50.2895000  80.2333190  38.6369480  49.7341890  79.5168690
  37.3995200  50.4239460  80.0506180  43.8809560  66.0062290  82.5240650
  43.8936720  65.6024580  81.6562910  43.3284780  66.7809580  82.4202080
  45.1754980  62.7278510  77.6130820  45.0651310  61.7852840  77.7380240
  45.1723230  63.0894150  78.4993580  43.2795000  60.9092130  83.8523260
  43.6963790  60.6952240  83.0176720  44.0034820  61.1664920  84.4231880
  40.7175260  58.3543830  76.9693310  39.7904540  58.2881210  77.1981780
  40.8700080  59.2923960  76.8548550  40.7044340  54.6260830  73.9660470
  39.7648010  54.7874790  74.0512930  41.0227600  55.3446510  73.4196460
  47.2257100  59.3079350  83.9439500  46.3975730  59.3772440  83.4689630
  47.8207580  59.8933660  83.4755330  44.7472550  59.9164130  77.4728560
  44.1284970  59.5783680  76.8254860  44.7297000  59.2723890  78.1807750
  44.1899110  56.0948670  84.8894370  43.7770290  56.9202380  85.1434360
  43.4575060  55.5093710  84.6970730  36.3231900  58.8808570  79.7513040
  35.9188900  58.1685820  79.2558940  36.4095020  58.5361810  80.6401080
  36.7913600  62.5676130  81.9152250  36.4941890  61.9621600  81.2360030
  37.7413420  62.6053440  81.8041610  35.0360520  55.6551780  83.5312080
  35.5875110  55.7647120  82.7565330  35.5504030  56.0289380  84.2467310
  44.8799210  66.1408000  85.5775350  44.4029770  66.9480190  85.3847960
  44.1961000  65.4886330  85.7301560  42.9237250  59.1550940  74.4801310
  43.3630530  58.3173370  74.3339130  43.6365670  59.7880340  74.5665450
  41.0332630  64.0947010  78.4482550  41.4728540  64.8371340  78.0337940
  40.9719520  64.3373580  79.3721510  46.5054390  50.4093750  72.7942350
  46.1927050  50.5020580  73.6941420  47.2666860  50.9874780  72.7439780
  33.0236530  57.7753550  77.2519690  32.9034130  58.5015640  76.6400960
  32.7137420  57.0056460  76.7747600  30.6621900  60.9468690  83.0588330
  30.7402320  61.0817460  82.1144050  31.2763580  60.2384580  83.2516450
  31.9069530  62.6468880  79.4694510  31.4997610  62.7883470  78.6148110
  32.7982540  62.3629040  79.2665720  43.7002810  67.0816130  75.8045560
  43.5403950  66.7919070  76.7027390  43.5349520  66.3056260  75.2690790
  36.1791190  66.8614660  77.5817180  36.0033670  65.9450200  77.3684980
  35.3246930  67.2201950  77.8214980  43.4028940  64.5903690  74.3643560
  42.7094100  64.5880980  73.7045840  44.1451800  64.1663010  73.9337730
  42.9678870  66.2166400  78.4392050  43.4235820  65.4355780  78.7530670
  43.3071390  66.9273220  78.9833230  30.7181420  61.9882860  85.5982790
  30.8812460  61.5188220  84.7802160  31.1833870  61.4806420  86.2631630
  35.4900190  51.1188620  80.6343360  35.0468340  51.8998160  80.3027880
  36.0485180  51.4418510  81.3414300  38.6059010  50.7399320  75.5149190
  37.9813190  50.7359190  76.2402500  38.5189130  49.8730280  75.1185160
  37.5276090  51.6635950  82.4932960  37.8248420  52.5698780  82.4124980
  38.0761650  51.1754730  81.8792530  35.2814410  56.2422190  78.3624610
  35.0555330  56.0259360  79.2671230  34.5006940  56.6750650  78.0170580
  42.5112170  56.2485560  76.9615260  41.9121060  56.9721360  76.7778880
  43.0591780  56.1862340  76.1791710  41.1177040  54.8849100  78.9918540
  41.5106610  55.2021300  78.1787230  41.4793890  54.0060980  79.1063060
  30.1541210  51.4749900  81.2148740  29.8654260  52.0452760  81.9273720
  30.8986970  50.9954350  81.5779970  30.3411440  55.4170020  72.4251460
  30.2586110  56.3600780  72.5666450  29.9894500  55.2744930  71.5463810
  41.7032180  57.4754850  83.0869320  40.9713300  57.9841660  83.4359420
  41.3056520  56.6584830  82.7858100  38.1409570  54.1509050  81.4921810
  38.1445630  53.7099000  80.6426350  39.0360690  54.4726380  81.5993630
  33.9911950  54.0335540  80.4516020  33.6512000  54.5110770  81.2083070
  33.2289270  53.5800660  80.0917120  38.2029720  55.1521130  74.4828570
  38.3242540  55.1107610  75.4314390  37.8178230  56.0145280  74.3275300
  42.1658090  52.9288530  82.4992260  42.1830830  53.3797180  83.3434110
  41.9173670  52.0294170  82.7125700  37.2151220  57.4622270  73.8811870
  36.6468120  57.0140520  73.2547780  37.9240220  57.8215050  73.3477020
  38.4417540  58.2110830  83.2387220  38.8087670  57.7369400  83.9848560
  38.2522600  59.0852400  83.5795560  31.3058030  52.9554520  79.3680690
  31.0204950  52.5910190  80.2059310  31.2436890  52.2234980  78.7543830
  36.2316910  57.2519470  85.5571430  35.9273980  58.1311450  85.7821790
  37.1863370  57.3119260  85.5928870  34.7598700  61.4580460  76.1538280
  33.9860960  60.9178080  75.9937000  35.4893330  60.9387070  75.8156040
  45.5186680  60.4545820  81.9464670  46.2385800  60.9501110  81.5560780
  45.3168500  59.7763710  81.3018540  40.9796620  51.8483780  76.0894060
  40.1661230  51.3496950  76.0139370  40.7858570  52.6882030  75.6730410
  43.6945010  56.2203430  74.3856220  44.5824630  56.5320660  74.2107560
  43.6650100  55.3475680  73.9936800  34.8036100  61.1260840  79.7917090
  35.3214770  60.3229100  79.7373980  34.3520120  61.0639980  80.6333920
  39.6905600  62.3927120  75.0644390  40.0321300  63.1369350  74.5687710
  38.8618310  62.7058240  75.4269220  45.9659280  57.5315270  73.8536080
  45.8823000  57.9629490  73.0032520  46.6853470  57.9913620  74.2862900
  46.9946530  64.3857530  76.5818210  46.3522690  63.7313150  76.8561930
  46.6077190  64.7912620  75.8058880  42.5733010  61.7142960  80.4289900
  42.9256830  61.1171090  79.7691270  41.6895340  61.3887190  80.5998150
  38.6596290  62.4740650  77.8360310  39.3467420  63.0209860  78.2167900
  37.8728710  63.0181380  77.8709920  30.7988690  58.0913470  73.3277390
  31.6683540  58.3738270  73.6113310  30.3079010  58.9049340  73.2126200
  37.9623500  59.4786680  77.4485670  38.4186280  60.2891930  77.6745860
  37.6111710  59.1609820  78.2804160  40.2656110  64.9893020  84.6777970
  40.9098330  65.1952400  85.3551390  40.6285550  64.2281420  84.2248820
  33.8635280  49.8224330  77.9208190  33.7349910  49.8142230  78.8693110
  33.0397300  50.1607420  77.5699200  41.5388190  62.9925370  83.3955420
  42.1810420  62.2918530  83.5087590  42.0637540  63.7723810  83.2152310
  45.3843910  63.2773990  73.1194560  45.1581490  62.5604430  73.7119200
  44.9940110  63.0286430  72.2816310  31.1659940  67.3040850  73.8939020
  31.5257580  67.9030190  73.2396290  31.0252280  67.8500740  74.6674050
  44.9660160  61.1945930  74.7808720  44.6781860  61.6558620  75.5686600
  45.7612330  60.7343700  75.0492940  37.1828560  64.6872050  74.7112690
  37.1738660  65.4201740  74.0957200  36.2626920  64.4403630  74.8039650
  32.7835200  59.9086940  75.4559450  32.1763150  60.6485840  75.4654750
  33.2584550  59.9986300  74.6297650  42.3567990  54.0737760  85.1316340
  42.7248810  53.2532970  85.4595910  41.4966190  54.1339650  85.5471990
  45.7230020  53.0294700  75.9403900  45.0943180  53.1340370  75.2262130
  45.2281940  53.2491480  76.7297780  40.1688160  64.7500290  73.3737880
  40.2700140  64.5464280  72.4439860  39.2689900  64.4958570  73.5785660
  37.6914050  55.3080650  77.3561780  36.9830200  55.7766990  77.7975390
  37.9758530  54.6502660  77.9906970  39.3169980  56.7277350  85.3554310
  39.8155230  57.2023170  86.0206160  39.4592930  55.8040870  85.5624340
  41.7229480  52.0331310  78.7957570  41.5997260  52.0517440  77.8467080
  42.6714040  52.0810250  78.9155970  38.8106270  67.2686610  78.0685550
  39.0647770  67.2308000  77.1464920  37.8618750  67.1419940  78.0613800
  35.8949070  53.6165730  74.7312490  36.7439600  54.0535880  74.6652680
  35.5280340  53.9285990  75.5584550  44.8158850  58.1878490  79.6444060
  43.8748990  58.2028720  79.8191750  45.1302920  57.4014450  80.0904360
  34.7940490  59.8698090  73.2048020  35.5603760  59.7579450  73.7673450
  34.8715180  59.1736060  72.5524790  33.4887250  57.3023160  73.8880910
  33.5690840  56.3550670  73.9998310  34.3807000  57.6330040  73.9941570
  46.8184430  65.3587340  81.3198320  46.9431850  66.1818510  81.7922130
  47.6849990  65.1478070  80.9722470  34.2901960  67.4518550  80.9915450
  35.0264440  66.9034010  81.2624020  34.6742880  68.3174560  80.8521440
  31.1747440  63.5192120  76.8656960  30.2487220  63.7613260  76.8562370
  31.6403870  64.3466380  76.7441710  37.4004270  66.6248860  72.8141020
  38.1932880  66.9137690  72.3622810  36.8808620  66.1941030  72.1353500
  46.4534440  65.8518990  74.2377760  46.1675950  65.4384130  73.4231940
  46.2553990  66.7806700  74.1178280  37.9181670  61.8452270  72.6783370
  37.8132310  61.2304620  73.4044750  37.7505890  61.3218160  71.8946380
  41.1584400  60.9072300  73.2825360  40.6094500  61.3541600  73.9268100
  41.7803660  60.4021550  73.8063030  36.8259520  59.8663220  75.1790660
  37.2475940  59.7003090  76.0222050  36.9510360  59.0563450  74.6845800
  39.3387160  58.8900830  72.4267760  39.8592820  58.1749850  72.0608910
  39.9855560  59.5286700  72.7268270  38.2420680  51.3695380  85.0986320
  37.7937980  51.3919640  84.2531870  37.6085880  50.9714400  85.6956620
  38.6480230  60.2649710  85.7198760  39.0668340  61.1082440  85.5475000
  37.7288860  60.4021750  85.4905540  35.7218420  55.9396450  72.1248820
  35.5207480  55.0763810  72.4862160  35.5510470  55.8529810  71.1870420
  43.2006730  50.7504680  74.6535700  43.4809020  49.9072580  75.0095120
  42.4272460  50.9827790  75.1674450  34.5201220  53.0397070  72.1126700
  34.8227120  53.0464500  71.2045850  35.2595810  52.6894930  72.6094360
  37.7386150  51.9831690  73.0982900  37.3908150  51.3055680  72.5185350
  37.9398920  51.5221200  73.9126290  39.9035190  66.9712440  74.7169500
  40.7985980  67.3097410  74.7388260  39.9352820  66.2491850  74.0893780
  33.5431350  62.3439490  72.9456500  33.9806220  62.8869160  73.6014080
  34.0279080  61.5186440  72.9552840  30.7577150  65.1328520  80.3976760
  31.0880160  64.2649580  80.1655400  31.1868150  65.3387040  81.2281720
  35.3539070  63.4637530  78.0578730  35.0534610  63.3402500  78.9582640
  35.2476560  62.6046120  77.6494460  31.2467360  65.9999110  83.1358390
  30.8098350  66.1799910  83.9682540  31.8145040  66.7573730  82.9940110
  48.1230990  63.2433930  72.7605410  47.2923950  63.3110580  73.2312640
  48.3002820  64.1338050  72.4572270  47.5787450  59.9881410  75.2639610
  48.3406360  60.5578060  75.3699300  47.5941820  59.4208610  76.0347920
  31.0791790  58.5119340  79.4947270  30.4240630  58.2430980  78.8506970
  31.9169740  58.4023820  79.0449250  48.5847420  60.8431510  80.1081540
  48.9556250  60.0598830  79.7017510  49.2249350  61.5320610  79.9298840
  45.5681180  62.2268090  85.5211860  44.7541020  62.6565250  85.7837650
  45.9755380  62.8386500  84.9080910  47.6306620  60.2815780  72.4212130
  47.9055460  61.1894660  72.2931350  47.4417360  60.2178310  73.3574120
  44.0282230  53.3060630  73.7165760  44.4467110  53.1191610  72.8762420
  43.7218290  52.4539680  74.0268690  47.5271960  58.2184770  77.4141560
  47.1515560  57.4512700  76.9822850  46.7975080  58.6007470  77.9016490
  32.1167720  58.8971910  84.0350610  32.4840760  58.8099310  84.9146630
  31.5478540  58.1338460  83.9357470  30.2929870  55.7218270  75.4372600
  29.3893950  55.9848470  75.2624260  30.7770490  55.9929440  74.6572560
  46.8022920  56.4442260  80.7148800  47.3260400  55.9504910  80.0838970
  47.3882340  56.5792620  81.4596370  46.9812640  56.5282130  84.2368350
  46.0315350  56.4945670  84.3513340  47.1625650  57.4382240  84.0018120
  32.8357080  54.7783810  73.3466980  33.5448780  54.3567030  72.8614260
  32.1197020  54.8459040  72.7150330  32.4831240  50.8323140  72.3869630
  33.2059370  51.3732080  72.7050850  32.7555760  50.5586560  71.5111170
  46.2922890  55.7015610  76.6541210  46.7882010  55.4686480  77.4390090
  46.0938960  54.8627450  76.2378850  32.1723430  50.0829330  82.2892250
  32.8199620  49.5326710  81.8487410  32.5925270  50.3372480  83.1108060
  47.7210050  54.3376560  79.1878890  47.6109330  54.1832600  80.1261160
  48.4817640  53.8097500  78.9454300  46.0675770  50.2770690  85.6461890
  46.7047990  50.8904830  86.0121080  46.2150660  50.3131350  84.7011120
  48.6100320  52.1684480  72.4285030  49.5349630  52.0365660  72.2203320
  48.5876110  52.2477300  73.3821480  48.6838810  52.9395140  75.0541740
  47.8890310  52.8740260  75.5834650  48.8882090  53.8745780  75.0427090
  45.6257230  66.9786690  79.0480130  46.2216300  66.6571260  78.3714550
  45.8835380  66.5058510  79.8393400  31.9255430  50.2385000  85.0317570
  31.5770250  50.6948820  85.7975750  31.5943130  49.3442130  85.1140000
  37.2325830  64.9664190  84.7980480  36.9917190  65.2338750  83.9111000
  38.1728470  65.1369920  84.8531340  48.4929990  66.9858570  85.5991120
  47.9988270  67.3827440  84.8818250  47.8843280  66.3607780  85.9928400
  42.8162850  49.6499080  84.5198570  41.9422690  49.9834190  84.3171500
  42.7073600  49.1772260  85.3450440  43.7234830  51.8569950  85.9040290
  43.3948190  51.0421710  85.5242020  44.6717130  51.8139760  85.7805980
  46.1769440  67.6281990  82.8777860  45.7172410  68.3797800  82.5035880
  45.5481900  66.9088460  82.8192660  33.0020060  63.7225230  85.2676580
  32.2754120  63.1030520  85.2002530  33.0629210  64.1165840  84.3974660
  36.6065160  65.9370230  82.0525990  37.1230180  65.3257590  81.5274250
  37.2562540  66.4399010  82.5437000  39.3460660  66.8278720  82.8794970
  39.6338470  66.5733020  82.0027980  39.8583880  66.2756080  83.4700540
  40.5637670  50.5668920  83.4591480  39.7809460  51.0414420  83.7388240
  40.2700600  49.6623750  83.3504660  45.1158740  51.2692020  81.5040570
  45.5566830  51.2137120  80.6562170  44.8466330  52.1850030  81.5750750
  46.9797310  50.9007260  79.5149390  46.9185710  49.9568480  79.3680410
  47.7589340  51.0087350  80.0602850  31.2850060  67.0399620  78.4773340
  31.1172100  66.4070300  79.1755230  30.4184570  67.2459020  78.1267530
  31.9078080  50.8716400  75.9805200  32.6657440  50.9845280  75.4069230
  31.4455250  51.7085600  75.9348630  38.4491890  52.9855670  78.9707510
  37.6366400  52.6112560  78.6303390  38.9533530  52.2300750  79.2728700
  42.9516870  49.6498120  80.2090580  43.5546240  50.2218330  80.6839100
  42.2109860  50.2137560  79.9864480  46.0951470  50.0519680  75.4830860
  46.2902100  50.9503130  75.7498290  45.3081340  49.8206760  75.9763810
  32.8912760  65.7332850  75.9223480  32.3660380  66.1140880  75.2185440
  32.8157340  66.3583620  76.6433190  34.2803230  51.3980450  74.5207170
  34.8095990  50.6110250  74.3915120  34.9131550  52.0771640  74.7542700
  36.4741070  51.1355590  77.5752560  35.8443810  50.4342900  77.7422690
  35.9346210  51.8959720  77.3585720  47.6478080  67.2920390  77.2437420
  47.8230270  66.6058130  76.5998340  46.9499650  67.8167440  76.8514090
  35.4905730  67.6815230  74.7972730  36.2224550  67.3974510  74.2496620
  35.7499400  67.4428510  75.6872110  34.6520520  63.7979960  74.8019060
  34.0229400  64.2665060  75.3504890  34.7668350  62.9529180  75.2365250
  42.1070240  57.8485620  60.9520260  42.0264290  56.9340230  60.6811970
  41.6934660  58.3452690  60.2459970  40.2388280  59.6264640  62.8329530
  39.4630380  59.1465080  63.1228100  40.8901210  58.9470290  62.6585690
  34.2554110  59.9384450  63.7105290  33.4238990  59.6833160  64.1101800
  34.8635090  60.0095220  64.4463210  44.2595710  64.0324830  61.6128660
  43.7977240  63.2612070  61.9415830  45.0721260  64.0590900  62.1181110
  34.2355370  63.9724540  63.9063310  34.5383410  63.0822280  63.7273530
  34.9798960  64.5294760  63.6785560  32.6646060  54.8986340  57.4947680
  31.7762760  55.2402310  57.3927560  32.9487250  54.6986660  56.6028510
  30.6279070  57.4991990  63.3787380  31.1995180  56.7314190  63.3791020
  30.6280610  57.7980750  62.4693990  40.4859020  66.3182840  61.2332650
  39.8670460  66.7740340  60.6627090  41.3410800  66.4734300  60.8322350
  39.6797270  62.3021830  62.8399690  39.6105550  61.3611770  62.6788820
  40.4417130  62.3923240  63.4122260  31.8703940  52.9076350  65.1656310
  31.6906780  52.0102100  65.4459070  31.4684020  53.4548220  65.8403260
  40.7102440  55.1092210  63.0668620  41.0867260  54.2364090  62.9542290
  40.6121950  55.4450910  62.1759060  34.8407450  53.4817840  58.5286060
  34.9474200  54.3821570  58.8354820  33.9299810  53.4335810  58.2380710
  44.4926560  52.6042650  59.9996960  45.3136180  52.1139220  60.0422440
  44.5260640  53.1940310  60.7528800  32.4890610  55.4036850  63.7738650
  33.1700720  55.6675220  64.3926050  32.1738660  54.5637720  64.1076660
  36.6815180  56.4504210  62.8611240  37.1893400  56.9485180  63.5016260
  37.2128420  55.6739410  62.6850600  48.7826110  54.6209400  66.5640590
  48.0778280  55.0091110  66.0455700  49.0484030  55.3159690  67.1661520
  34.9651280  51.0902770  67.1274660  34.9669720  51.6075160  66.3220560
  34.1355590  50.6132950  67.1044590  41.3522370  61.2022080  58.6264560
  40.7339640  61.6671530  58.0627280  41.8645620  61.8949560  59.0434070
  36.2154130  60.7297950  65.3048160  35.8823510  61.3566870  65.9469230
  36.3920810  61.2559830  64.5249830  44.7288040  54.5443030  62.7724500
  44.0243610  54.8327920  63.3527610  45.0900200  55.3543140  62.4124060
  34.6466610  52.8012730  65.1345110  34.9883420  53.6454780  64.8398980
  33.7082420  52.9496470  65.2510450  35.4273230  62.6978750  67.1197340
  36.0447230  63.3729830  66.8381790  34.5666350  63.1066730  67.0284840
  30.7205570  61.8878610  56.0004190  30.3433550  62.3765710  55.2689090
  30.9778640  62.5603890  56.6310720  46.3450820  64.1618160  65.0351980
  45.6614340  64.8317270  65.0268650  46.8845110  64.3598810  64.2696840
  47.7974960  53.9897820  63.1633710  46.8499870  54.0236800  63.2949140
  48.1224950  54.8036770  63.5483070  38.3294500  50.2895000  61.4589700
  38.6369480  49.7341890  60.7425200  37.3995200  50.4239460  61.2762690
  43.8809560  66.0062290  63.7497160  43.8936720  65.6024580  62.8819420
  43.3284780  66.7809580  63.6458590  45.1754980  62.7278510  58.8387330
  45.0651310  61.7852840  58.9636750  45.1723230  63.0894150  59.7250090
  43.2795000  60.9092130  65.0779770  43.6963790  60.6952240  64.2433230
  44.0034820  61.1664920  65.6488390  40.7175260  58.3543830  58.1949820
  39.7904540  58.2881210  58.4238290  40.8700080  59.2923960  58.0805060
  40.7044340  54.6260830  55.1916980  39.7648010  54.7874790  55.2769440
  41.0227600  55.3446510  54.6452970  47.2257100  59.3079350  65.1696010
  46.3975730  59.3772440  64.6946140  47.8207580  59.8933660  64.7011840
  44.7472550  59.9164130  58.6985070  44.1284970  59.5783680  58.0511370
  44.7297000  59.2723890  59.4064260  44.1899110  56.0948670  66.1150880
  43.7770290  56.9202380  66.3690870  43.4575060  55.5093710  65.9227240
  36.3231900  58.8808570  60.9769550  35.9188900  58.1685820  60.4815450
  36.4095020  58.5361810  61.8657590  36.7913600  62.5676130  63.1408760
  36.4941890  61.9621600  62.4616540  37.7413420  62.6053440  63.0298120
  35.0360520  55.6551780  64.7568590  35.5875110  55.7647120  63.9821840
  35.5504030  56.0289380  65.4723820  44.8799210  66.1408000  66.8031860
  44.4029770  66.9480190  66.6104470  44.1961000  65.4886330  66.9558070
  35.8832030  62.3057820  69.7916560  34.9860560  62.5297790  70.0389960
  35.9084900  62.4292760  68.8427960  42.9237250  59.1550940  55.7057820
  43.3630530  58.3173370  55.5595640  43.6365670  59.7880340  55.7921960
  34.7103250  59.1771140  68.3673930  34.5711020  60.0493940  68.7361330
  33.8284610  58.8343950  68.2221870  41.0332630  64.0947010  59.6739060
  41.4728540  64.8371340  59.2594450  40.9719520  64.3373580  60.5978020
  36.5083600  65.1192840  70.5759080  36.4799030  65.5235790  69.7087510
  36.3448570  64.1903200  70.4130680  33.0236530  57.7753550  58.4776200
  32.9034130  58.5015640  57.8657470  32.7137420  57.0056460  58.0004110
  48.4598420  65.9019940  71.8723250  48.9358140  66.3802830  72.5512330
  49.0805580  65.8337430  71.1468750  30.6621900  60.9468690  64.2844840
  30.7402320  61.0817460  63.3400560  31.2763580  60.2384580  64.4772960
  31.9069530  62.6468880  60.6951020  31.4997610  62.7883470  59.8404620
  32.7982540  62.3629040  60.4922230  47.8631670  63.0932790  69.0323260
  47.9894730  62.8544670  68.1140440  47.9053050  62.2617330  69.5045340
  41.7248410  66.7960790  67.6018070  42.2393080  66.7068800  68.4040500
  40.8817490  67.1420490  67.8945980  43.7002810  67.0816130  57.0302070
  43.5403950  66.7919070  57.9283900  43.5349520  66.3056260  56.4947300
  36.1791190  66.8614660  58.8073690  36.0033670  65.9450200  58.5941490
  35.3246930  67.2201950  59.0471490  43.4028940  64.5903690  55.5900070
  42.7094100  64.5880980  54.9302350  44.1451800  64.1663010  55.1594240
  42.9678870  66.2166400  59.6648560  43.4235820  65.4355780  59.9787180
  43.3071390  66.9273220  60.2089740  47.7155680  55.1465250  69.9973000
  47.0999950  55.6544920  69.4688460  47.3952100  54.2463580  69.9398940
  30.7181420  61.9882860  66.8239300  30.8812460  61.5188220  66.0058670
  31.1833870  61.4806420  67.4888140  39.7770000  53.9857140  67.4635190
  39.3149370  54.1940160  68.2755130  39.3748110  53.1716490  67.1605860
  44.7774510  55.2066090  68.5931850  43.9268100  54.9071840  68.9140920
  44.6176300  55.4508100  67.6815670  41.8724220  56.7067840  70.6930640
  42.1977630  55.8731590  70.3532870  42.6604550  57.2296360  70.8408970
  37.5276090  51.6635950  63.7189470  37.8248420  52.5698780  63.6381490
  38.0761650  51.1754730  63.1049040  35.2814410  56.2422190  59.5881120
  35.0555330  56.0259360  60.4927740  34.5006940  56.6750650  59.2427090
  42.5112170  56.2485560  58.1871770  41.9121060  56.9721360  58.0035390
  43.0591780  56.1862340  57.4048220  37.7213620  57.1407770  70.2541390
  37.6257220  56.2002500  70.1041790  38.5645600  57.3622840  69.8589460
  41.1177040  54.8849100  60.2175050  41.5106610  55.2021300  59.4043740
  41.4793890  54.0060980  60.3319570  32.8524160  53.5521440  68.4075170
  32.4587550  54.3996650  68.6147950  32.1642560  52.9147810  68.5983810
  39.4269210  53.6356410  71.4771910  38.7367530  53.4428610  72.1118000
  40.1701510  53.9191050  72.0096210  30.1541210  51.4749900  62.4405250
  29.8654260  52.0452760  63.1530230  30.8986970  50.9954350  62.8036480
  30.3411440  55.4170020  53.6507970  30.2586110  56.3600780  53.7922960
  29.9894500  55.2744930  52.7720320  41.7032180  57.4754850  64.3125830
  40.9713300  57.9841660  64.6615930  41.3056520  56.6584830  64.0114610
  38.1409570  54.1509050  62.7178320  38.1445630  53.7099000  61.8682860
  39.0360690  54.4726380  62.8250140  33.9911950  54.0335540  61.6772530
  33.6512000  54.5110770  62.4339580  33.2289270  53.5800660  61.3173630
  38.2029720  55.1521130  55.7085080  38.3242540  55.1107610  56.6570900
  37.8178230  56.0145280  55.5531810  42.1658090  52.9288530  63.7248770
  42.1830830  53.3797180  64.5690620  41.9173670  52.0294170  63.9382210
  37.2151220  57.4622270  55.1068380  36.6468120  57.0140520  54.4804290
  37.9240220  57.8215050  54.5733530  45.5928840  50.3420710  69.5635150
  45.9174610  49.6110370  70.0893130  45.6285350  50.0234350  68.6616140
  32.2920400  61.3634290  68.9835110  31.9075190  60.7227960  69.5818070
  32.6032590  62.0670410  69.5529840  38.4417540  58.2110830  64.4643730
  38.8087670  57.7369400  65.2105070  38.2522600  59.0852400  64.8052070
  31.3058030  52.9554520  60.5937200  31.0204950  52.5910190  61.4315820
  31.2436890  52.2234980  59.9800340  36.2316910  57.2519470  66.7827940
  35.9273980  58.1311450  67.0078300  37.1863370  57.3119260  66.8185380
  34.7598700  61.4580460  57.3794790  33.9860960  60.9178080  57.2193510
  35.4893330  60.9387070  57.0412550  45.5186680  60.4545820  63.1721180
  46.2385800  60.9501110  62.7817290  45.3168500  59.7763710  62.5275050
  40.9005480  60.5254880  69.0590180  40.8342790  59.6050550  68.8047770
  40.2710620  60.6230320  69.7734820  43.6945010  56.2203430  55.6112730
  44.5824630  56.5320660  55.4364070  43.6650100  55.3475680  55.2193310
  34.8036100  61.1260840  61.0173600  35.3214770  60.3229100  60.9630490
  34.3520120  61.0639980  61.8590430  39.6905600  62.3927120  56.2900900
  40.0321300  63.1369350  55.7944220  38.8618310  62.7058240  56.6525730
  32.2880640  58.0922210  67.9299300  31.9295580  58.7576060  68.5172640
  31.9935200  57.2605760  68.3011920  35.4893760  58.5506450  70.8138850
  35.1893900  58.6963630  69.9166670  36.2605000  57.9911740  70.7212240
  40.8322210  63.3475450  68.8093980  40.8466750  62.4156410  68.5912890
  40.1247310  63.4335210  69.4483750  45.9659280  57.5315270  55.0792590
  45.8823000  57.9629490  54.2289030  46.6853470  57.9913620  55.5119410
  47.0433420  59.9882790  68.1562560  46.3181610  60.5811570  67.9591950
  47.5708880  59.9806330  67.3575930  46.9946530  64.3857530  57.8074720
  46.3522690  63.7313150  58.0818440  46.6077190  64.7912620  57.0315390
  42.5733010  61.7142960  61.6546410  42.9256830  61.1171090  60.9947780
  41.6895340  61.3887190  61.8254660  38.6596290  62.4740650  59.0616820
  39.3467420  63.0209860  59.4424410  37.8728710  63.0181380  59.0966430
  30.7988690  58.0913470  54.5533900  31.6683540  58.3738270  54.8369820
  30.3079010  58.9049340  54.4382710  37.9623500  59.4786680  58.6742180
  38.4186280  60.2891930  58.9002370  37.6111710  59.1609820  59.5060670
  40.2656110  64.9893020  65.9034480  40.9098330  65.1952400  66.5807900
  40.6285550  64.2281420  65.4505330  41.5388190  62.9925370  64.6211930
  42.1810420  62.2918530  64.7344100  42.0637540  63.7723810  64.4408820
  45.3843910  63.2773990  54.3451070  45.1581490  62.5604430  54.9375710
  44.9940110  63.0286430  53.5072820  43.3125810  63.7920270  67.8247990
  43.6482050  64.3786960  68.5025910  42.3926150  63.6612980  68.0545780
  31.1659940  67.3040850  55.1195530  31.5257580  67.9030190  54.4652800
  31.0252280  67.8500740  55.8930560  30.8629210  51.5815450  68.6071400
  30.1487730  51.7812370  69.2124010  31.2824250  50.8055020  68.9786200
  44.9660160  61.1945930  56.0065230  44.6781860  61.6558620  56.7943110
  45.7612330  60.7343700  56.2749450  31.1501800  65.5695710  69.5937930
  31.2592920  64.6290450  69.4533320  30.4982360  65.8350460  68.9451660
  39.1414390  63.8411600  70.9936050  38.8211260  63.1220840  71.5381740
  38.4672750  64.5166670  71.0672110  37.1828560  64.6872050  55.9369200
  37.1738660  65.4201740  55.3213710  36.2626920  64.4403630  56.0296160
  32.7835200  59.9086940  56.6815960  32.1763150  60.6485840  56.6911260
  33.2584550  59.9986300  55.8554160  42.3567990  54.0737760  66.3572850
  42.7248810  53.2532970  66.6852420  41.4966190  54.1339650  66.7728500
  45.7230020  53.0294700  57.1660410  45.0943180  53.1340370  56.4518640
  45.2281940  53.2491480  57.9554290  40.1688160  64.7500290  54.5994390
  40.2700140  64.5464280  53.6696370  39.2689900  64.4958570  54.8042170
  37.6914050  55.3080650  58.5818290  36.9830200  55.7766990  59.0231900
  37.9758530  54.6502660  59.2163480  39.3169980  56.7277350  66.5810820
  39.8155230  57.2023170  67.2462670  39.4592930  55.8040870  66.7880850
  38.8106270  67.2686610  59.2942060  39.0647770  67.2308000  58.3721430
  37.8618750  67.1419940  59.2870310  46.5236840  52.9445310  67.4239210
  46.0210440  53.6850710  67.7633020  47.3393500  53.3329310  67.1076000
  44.8158850  58.1878490  60.8700570  43.8748990  58.2028720  61.0448260
  45.1302920  57.4014450  61.3160870  34.7940490  59.8698090  54.4304530
  35.5603760  59.7579450  54.9929960  34.8715180  59.1736060  53.7781300
  33.4887250  57.3023160  55.1137420  33.5690840  56.3550670  55.2254820
  34.3807000  57.6330040  55.2198080  46.8184430  65.3587340  62.5454830
  46.9431850  66.1818510  63.0178640  47.6849990  65.1478070  62.1978980
  34.2901960  67.4518550  62.2171960  35.0264440  66.9034010  62.4880530
  34.6742880  68.3174560  62.0777950  31.1747440  63.5192120  58.0913470
  30.2487220  63.7613260  58.0818880  31.6403870  64.3466380  57.9698220
  33.2960240  66.6364620  71.4057540  34.0972970  66.9576670  71.8192940
  32.7812060  66.2760200  72.1277450  37.4004270  66.6248860  54.0397530
  38.1932880  66.9137690  53.5879320  36.8808620  66.1941030  53.3610010
  42.1324870  62.7444490  71.3532950  41.5263030  62.7676090  70.6128700
  41.8278980  62.0127530  71.8900200  43.5625240  66.4724780  69.9642360
  44.5146990  66.3882800  69.9142600  43.4153460  67.1366490  70.6376150
  46.4534440  65.8518990  55.4634270  46.1675950  65.4384130  54.6488450
  46.2553990  66.7806700  55.3434790  31.0158050  59.1238080  70.3493590
  31.5197070  58.5445360  70.9209820  30.2765470  59.4078310  70.8869960
  37.9181670  61.8452270  53.9039880  37.8132310  61.2304620  54.6301260
  37.7505890  61.3218160  53.1202890  38.0695990  60.5309070  69.8829110
  37.3041660  61.0994070  69.7983780  38.2511950  60.2385280  68.9897340
  41.1584400  60.9072300  54.5081870  40.6094500  61.3541600  55.1524610
  41.7803660  60.4021550  55.0319540  45.2119340  62.2614400  70.4404130
  45.9528810  62.5990160  69.9371590  44.4492020  62.4306460  69.8873900
  33.0481130  57.2667670  71.2443660  33.0886470  56.9681540  72.1528890
  33.9026630  57.6675280  71.0851180  36.8259520  59.8663220  56.4047170
  37.2475940  59.7003090  57.2478560  36.9510360  59.0563450  55.9102310
  34.9886940  55.8459770  69.2118150  34.4583400  55.3550720  68.5841490
  35.6575010  56.2743970  68.6776080  39.3387160  58.8900830  53.6524270
  39.8592820  58.1749850  53.2865420  39.9855560  59.5286700  53.9524780
  43.8865000  60.3129230  68.9759340  44.3006020  60.4674310  69.8249760
  42.9516000  60.4384450  69.1385120  44.3587170  57.6525390  70.9798490
  44.9407940  56.8977710  70.8918970  44.5348940  58.1832830  70.2029970
  35.4759240  52.8122140  69.2915440  35.3816110  52.1942890  68.5666310
  34.8956630  53.5388430  69.0645350  38.2420680  51.3695380  66.3242830
  37.7937980  51.3919640  65.4788380  37.6085880  50.9714400  66.9213130
  38.6480230  60.2649710  66.9455270  39.0668340  61.1082440  66.7731510
  37.7288860  60.4021750  66.7162050  40.9844130  57.9965890  68.3293110
  41.1040340  57.4007030  69.0687950  41.8438130  58.0335580  67.9094410
  43.3232030  58.5503080  66.9055620  42.7967250  59.0745700  66.3020760
  43.6663370  59.1830470  67.5365350  35.7218420  55.9396450  53.3505330
  35.5207480  55.0763810  53.7118670  35.5510470  55.8529810  52.4126930
  36.4987650  66.5702720  68.0613000  35.9608740  67.2948780  67.7421700
  36.7521610  66.0933060  67.2710340  37.7512900  54.5387240  69.5868930
  38.3412590  54.2303090  70.2746750  36.9333140  54.0666990  69.7428830
  42.5706330  54.1553050  69.8201950  41.8821850  53.4934590  69.7551940
  43.2912350  53.7091320  70.2650410  34.5201220  53.0397070  53.3383210
  34.8227120  53.0464500  52.4302360  35.2595810  52.6894930  53.8350870
  39.3549860  67.8053930  68.3199650  39.2808560  68.7089070  68.6272020
  38.4528700  67.4865830  68.2921720  39.9035190  66.9712440  55.9426010
  40.7985980  67.3097410  55.9644770  39.9352820  66.2491850  55.3150290
  33.5431350  62.3439490  54.1713010  33.9806220  62.8869160  54.8270590
  34.0279080  61.5186440  54.1809350  30.7577150  65.1328520  61.6233270
  31.0880160  64.2649580  61.3911910  31.1868150  65.3387040  62.4538230
  35.3539070  63.4637530  59.2835240  35.0534610  63.3402500  60.1839150
  35.2476560  62.6046120  58.8750970  31.2467360  65.9999110  64.3614900
  30.8098350  66.1799910  65.1939050  31.8145040  66.7573730  64.2196620
  46.8829540  65.5016110  68.6492210  46.2831530  65.5608670  67.9056130
  47.0123440  64.5621090  68.7789060  48.1230990  63.2433930  53.9861920
  47.2923950  63.3110580  54.4569150  48.3002820  64.1338050  53.6828780
  47.5787450  59.9881410  56.4896120  48.3406360  60.5578060  56.5955810
  47.5941820  59.4208610  57.2604430  31.0791790  58.5119340  60.7203780
  30.4240630  58.2430980  60.0763480  31.9169740  58.4023820  60.2705760
  48.5847420  60.8431510  61.3338050  48.9556250  60.0598830  60.9274020
  49.2249350  61.5320610  61.1555350  45.5681180  62.2268090  66.7468370
  44.7541020  62.6565250  67.0094160  45.9755380  62.8386500  66.1337420
  47.6306620  60.2815780  53.6468640  47.9055460  61.1894660  53.5187860
  47.4417360  60.2178310  54.5830630  44.0282230  53.3060630  54.9422270
  44.4467110  53.1191610  54.1018930  43.7218290  52.4539680  55.2525200
  47.5271960  58.2184770  58.6398070  47.1515560  57.4512700  58.2079360
  46.7975080  58.6007470  59.1273000  32.1167720  58.8971910  65.2607120
  32.4840760  58.8099310  66.1403140  31.5478540  58.1338460  65.1613980
  46.9171580  57.3656290  68.2737590  46.6857670  57.1369040  67.3735540
  47.1776130  58.2855840  68.2282480  31.6683720  55.8081000  69.1665540
  30.7739770  55.7747760  69.5059250  32.2081270  56.0067790  69.9316790
  45.3559650  52.5912720  71.0517290  46.2329830  52.5996120  71.4351290
  45.3680490  51.8543560  70.4409640  30.2929870  55.7218270  56.6629110
  29.3893950  55.9848470  56.4880770  30.7770490  55.9929440  55.8829070
  46.8022920  56.4442260  61.9405310  47.3260400  55.9504910  61.3095480
  47.3882340  56.5792620  62.6852880  46.9812640  56.5282130  65.4624860
  46.0315350  56.4945670  65.5769850  47.1625650  57.4382240  65.2274630
  32.8357080  54.7783810  54.5723490  33.5448780  54.3567030  54.0870770
  32.1197020  54.8459040  53.9406840  46.2922890  55.7015610  57.8797720
  46.7882010  55.4686480  58.6646600  46.0938960  54.8627450  57.4635360
  47.7210050  54.3376560  60.4135400  47.6109330  54.1832600  61.3517670
  48.4817640  53.8097500  60.1710810  46.0675770  50.2770690  66.8718400
  46.7047990  50.8904830  67.2377590  46.2150660  50.3131350  65.9267630
  48.6100320  52.1684480  53.6541540  49.5349630  52.0365660  53.4459830
  48.5876110  52.2477300  54.6077990  48.6838810  52.9395140  56.2798250
  47.8890310  52.8740260  56.8091160  48.8882090  53.8745780  56.2683600
  45.6257230  66.9786690  60.2736640  46.2216300  66.6571260  59.5971060
  45.8835380  66.5058510  61.0649910  31.9255430  50.2385000  66.2574080
  31.5770250  50.6948820  67.0232260  31.5943130  49.3442130  66.3396510
  33.5319800  63.4104600  70.4227270  33.4889430  63.0397510  71.3041730
  33.6630810  64.3482170  70.5629090  37.2325830  64.9664190  66.0236990
  36.9917190  65.2338750  65.1367510  38.1728470  65.1369920  66.0787850
  39.4380250  51.4296880  69.7793500  39.3769140  52.0218710  70.5288910
  40.3780630  51.3222840  69.6343760  42.0754810  51.0866940  69.4185790
  42.6895220  51.4046230  68.7566870  42.6204370  50.6015530  70.0381650
  48.4929990  66.9858570  66.8247630  47.9988270  67.3827440  66.1074760
  47.8843280  66.3607780  67.2184910  32.5976070  49.7661200  69.5324850
  33.1459060  49.5849250  68.7690960  32.6631380  48.9755310  70.0681160
  33.3707830  66.3566850  67.5425050  32.7768150  66.2251550  68.2815090
  33.3631670  65.5204990  67.0767150  42.8162850  49.6499080  65.7455080
  41.9422690  49.9834190  65.5428010  42.7073600  49.1772260  66.5706950
  43.7234830  51.8569950  67.1296800  43.3948190  51.0421710  66.7498530
  44.6717130  51.8139760  67.0062490  46.1769440  67.6281990  64.1034370
  45.7172410  68.3797800  63.7292390  45.5481900  66.9088460  64.0449170
  33.0020060  63.7225230  66.4933090  32.2754120  63.1030520  66.4259040
  33.0629210  64.1165840  65.6231170  36.6065160  65.9370230  63.2782500
  37.1230180  65.3257590  62.7530760  37.2562540  66.4399010  63.7693510
  39.3460660  66.8278720  64.1051480  39.6338470  66.5733020  63.2284490
  39.8583880  66.2756080  64.6957050  40.5637670  50.5668920  64.6847990
  39.7809460  51.0414420  64.9644750  40.2700600  49.6623750  64.5761170
  45.1158740  51.2692020  62.7297080  45.5566830  51.2137120  61.8818680
  44.8466330  52.1850030  62.8007260  46.9797310  50.9007260  60.7405900
  46.9185710  49.9568480  60.5936920  47.7589340  51.0087350  61.2859360
  31.2850060  67.0399620  59.7029850  31.1172100  66.4070300  60.4011740
  30.4184570  67.2459020  59.3524040  31.9078080  50.8716400  57.2061710
  32.6657440  50.9845280  56.6325740  31.4455250  51.7085600  57.1605140
  38.4491890  52.9855670  60.1964020  37.6366400  52.6112560  59.8559900
  38.9533530  52.2300750  60.4985210  32.8912760  65.7332850  57.1479990
  32.3660380  66.1140880  56.4441950  32.8157340  66.3583620  57.8689700
  39.4133020  67.7494820  71.4719680  40.3400330  67.5139090  71.5155640
  39.3983450  68.5766820  70.9905710  47.6478080  67.2920390  58.4693930
  47.8230270  66.6058130  57.8254850  46.9499650  67.8167440  58.0770600
  36.5996630  50.4139570  71.2361560  36.3180900  50.9173170  70.4722380
  36.9816330  49.6161320  70.8703690  35.4905730  67.6815230  56.0229240
  36.2224550  67.3974510  55.4753130  35.7499400  67.4428510  56.9128620
  34.6520520  63.7979960  56.0275570  34.0229400  64.2665060  56.5761400
  34.7668350  62.9529180  56.4621760  43.2012090  49.8293150  71.8142030
  43.0877540  50.1487760  72.7093550  44.0181830  50.2305660  71.5179310
  45.9810580  66.9764680  71.2960720  46.7735900  66.4813910  71.0886680
  46.2743730  67.6554820  71.9036330  40.2388280  59.6264640  44.0586040
  39.4630380  59.1465080  44.3484610  40.8901210  58.9470290  43.8842200
  34.2554110  59.9384450  44.9361800  33.4238990  59.6833160  45.3358310
  34.8635090  60.0095220  45.6719720  44.2595710  64.0324830  42.8385170
  43.7977240  63.2612070  43.1672340  45.0721260  64.0590900  43.3437620
  34.2355370  63.9724540  45.1319820  34.5383410  63.0822280  44.9530040
  34.9798960  64.5294760  44.9042070  32.6646060  54.8986340  38.7204190
  31.7762760  55.2402310  38.6184070  32.9487250  54.6986660  37.8285020
  30.6279070  57.4991990  44.6043890  31.1995180  56.7314190  44.6047530
  30.6280610  57.7980750  43.6950500  40.4859020  66.3182840  42.4589160
  39.8670460  66.7740340  41.8883600  41.3410800  66.4734300  42.0578860
  39.6797270  62.3021830  44.0656200  39.6105550  61.3611770  43.9045330
  40.4417130  62.3923240  44.6378770  31.8703940  52.9076350  46.3912820
  31.6906780  52.0102100  46.6715580  31.4684020  53.4548220  47.0659770
  32.4890610  55.4036850  44.9995160  33.1700720  55.6675220  45.6182560
  32.1738660  54.5637720  45.3333170  36.6815180  56.4504210  44.0867750
  37.1893400  56.9485180  44.7272770  37.2128420  55.6739410  43.9107110
  48.7826110  54.6209400  47.7897100  48.0778280  55.0091110  47.2712210
  49.0484030  55.3159690  48.3918030  34.9651280  51.0902770  48.3531170
  34.9669720  51.6075160  47.5477070  34.1355590  50.6132950  48.3301100
  41.3522370  61.2022080  39.8521070  40.7339640  61.6671530  39.2883790
  41.8645620  61.8949560  40.2690580  36.2154130  60.7297950  46.5304670
  35.8823510  61.3566870  47.1725740  36.3920810  61.2559830  45.7506340
  34.6466610  52.8012730  46.3601620  34.9883420  53.6454780  46.0655490
  33.7082420  52.9496470  46.4766960  35.4273230  62.6978750  48.3453850
  36.0447230  63.3729830  48.0638300  34.5666350  63.1066730  48.2541350
  30.7205570  61.8878610  37.2260700  30.3433550  62.3765710  36.4945600
  30.9778640  62.5603890  37.8567230  46.3450820  64.1618160  46.2608490
  45.6614340  64.8317270  46.2525160  46.8845110  64.3598810  45.4953350
  43.8809560  66.0062290  44.9753670  43.8936720  65.6024580  44.1075930
  43.3284780  66.7809580  44.8715100  45.1754980  62.7278510  40.0643840
  45.0651310  61.7852840  40.1893260  45.1723230  63.0894150  40.9506600
  43.2795000  60.9092130  46.3036280  43.6963790  60.6952240  45.4689740
  44.0034820  61.1664920  46.8744900  47.2257100  59.3079350  46.3952520
  46.3975730  59.3772440  45.9202650  47.8207580  59.8933660  45.9268350
  44.7472550  59.9164130  39.9241580  44.1284970  59.5783680  39.2767880
  44.7297000  59.2723890  40.6320770  44.1899110  56.0948670  47.3407390
  43.7770290  56.9202380  47.5947380  43.4575060  55.5093710  47.1483750
  36.3231900  58.8808570  42.2026060  35.9188900  58.1685820  41.7071960
  36.4095020  58.5361810  43.0914100  36.7913600  62.5676130  44.3665270
  36.4941890  61.9621600  43.6873050  37.7413420  62.6053440  44.2554630
  35.0360520  55.6551780  45.9825100  35.5875110  55.7647120  45.2078350
  35.5504030  56.0289380  46.6980330  44.8799210  66.1408000  48.0288370
  44.4029770  66.9480190  47.8360980  44.1961000  65.4886330  48.1814580
  35.8832030  62.3057820  51.0173070  34.9860560  62.5297790  51.2646470
  35.9084900  62.4292760  50.0684470  42.9237250  59.1550940  36.9314330
  43.3630530  58.3173370  36.7852150  43.6365670  59.7880340  37.0178470
  34.7103250  59.1771140  49.5930440  34.5711020  60.0493940  49.9617840
  33.8284610  58.8343950  49.4478380  41.0332630  64.0947010  40.8995570
  41.4728540  64.8371340  40.4850960  40.9719520  64.3373580  41.8234530
  36.5083600  65.1192840  51.8015590  36.4799030  65.5235790  50.9344020
  36.3448570  64.1903200  51.6387190  33.0236530  57.7753550  39.7032710
  32.9034130  58.5015640  39.0913980  32.7137420  57.0056460  39.2260620
  48.4598420  65.9019940  53.0979760  48.9358140  66.3802830  53.7768840
  49.0805580  65.8337430  52.3725260  30.6621900  60.9468690  45.5101350
  30.7402320  61.0817460  44.5657070  31.2763580  60.2384580  45.7029470
  31.9069530  62.6468880  41.9207530  31.4997610  62.7883470  41.0661130
  32.7982540  62.3629040  41.7178740  47.8631670  63.0932790  50.2579770
  47.9894730  62.8544670  49.3396950  47.9053050  62.2617330  50.7301850
  41.7248410  66.7960790  48.8274580  42.2393080  66.7068800  49.6297010
  40.8817490  67.1420490  49.1202490  43.7002810  67.0816130  38.2558580
  43.5403950  66.7919070  39.1540410  43.5349520  66.3056260  37.7203810
  36.1791190  66.8614660  40.0330200  36.0033670  65.9450200  39.8198000
  35.3246930  67.2201950  40.2728000  43.4028940  64.5903690  36.8156580
  42.7094100  64.5880980  36.1558860  44.1451800  64.1663010  36.3850750
  42.9678870  66.2166400  40.8905070  43.4235820  65.4355780  41.2043690
  43.3071390  66.9273220  41.4346250  47.7155680  55.1465250  51.2229510
  47.0999950  55.6544920  50.6944970  47.3952100  54.2463580  51.1655450
  30.7181420  61.9882860  48.0495810  30.8812460  61.5188220  47.2315180
  31.1833870  61.4806420  48.7144650  39.7770000  53.9857140  48.6891700
  39.3149370  54.1940160  49.5011640  39.3748110  53.1716490  48.3862370
  44.7774510  55.2066090  49.8188360  43.9268100  54.9071840  50.1397430
  44.6176300  55.4508100  48.9072180  41.8724220  56.7067840  51.9187150
  42.1977630  55.8731590  51.5789380  42.6604550  57.2296360  52.0665480
  35.2814410  56.2422190  40.8137630  35.0555330  56.0259360  41.7184250
  34.5006940  56.6750650  40.4683600  37.7213620  57.1407770  51.4797900
  37.6257220  56.2002500  51.3298300  38.5645600  57.3622840  51.0845970
  32.8524160  53.5521440  49.6331680  32.4587550  54.3996650  49.8404460
  32.1642560  52.9147810  49.8240320  39.4269210  53.6356410  52.7028420
  38.7367530  53.4428610  53.3374510  40.1701510  53.9191050  53.2352720
  30.3411440  55.4170020  34.8764480  30.2586110  56.3600780  35.0179470
  29.9894500  55.2744930  33.9976830  41.7032180  57.4754850  45.5382340
  40.9713300  57.9841660  45.8872440  41.3056520  56.6584830  45.2371120
  33.9911950  54.0335540  42.9029040  33.6512000  54.5110770  43.6596090
  33.2289270  53.5800660  42.5430140  42.1658090  52.9288530  44.9505280
  42.1830830  53.3797180  45.7947130  41.9173670  52.0294170  45.1638720
  37.2151220  57.4622270  36.3324890  36.6468120  57.0140520  35.7060800
  37.9240220  57.8215050  35.7990040  32.2920400  61.3634290  50.2091620
  31.9075190  60.7227960  50.8074580  32.6032590  62.0670410  50.7786350
  38.4417540  58.2110830  45.6900240  38.8087670  57.7369400  46.4361580
  38.2522600  59.0852400  46.0308580  36.2316910  57.2519470  48.0084450
  35.9273980  58.1311450  48.2334810  37.1863370  57.3119260  48.0441890
  45.5186680  60.4545820  44.3977690  46.2385800  60.9501110  44.0073800
  45.3168500  59.7763710  43.7531560  40.9005480  60.5254880  50.2846690
  40.8342790  59.6050550  50.0304280  40.2710620  60.6230320  50.9991330
  34.8036100  61.1260840  42.2430110  35.3214770  60.3229100  42.1887000
  34.3520120  61.0639980  43.0846940  39.6905600  62.3927120  37.5157410
  40.0321300  63.1369350  37.0200730  38.8618310  62.7058240  37.8782240
  32.2880640  58.0922210  49.1555810  31.9295580  58.7576060  49.7429150
  31.9935200  57.2605760  49.5268430  35.4893760  58.5506450  52.0395360
  35.1893900  58.6963630  51.1423180  36.2605000  57.9911740  51.9468750
  40.8322210  63.3475450  50.0350490  40.8466750  62.4156410  49.8169400
  40.1247310  63.4335210  50.6740260  47.0433420  59.9882790  49.3819070
  46.3181610  60.5811570  49.1848460  47.5708880  59.9806330  48.5832440
  46.9946530  64.3857530  39.0331230  46.3522690  63.7313150  39.3074950
  46.6077190  64.7912620  38.2571900  42.5733010  61.7142960  42.8802920
  42.9256830  61.1171090  42.2204290  41.6895340  61.3887190  43.0511170
  38.6596290  62.4740650  40.2873330  39.3467420  63.0209860  40.6680920
  37.8728710  63.0181380  40.3222940  30.7988690  58.0913470  35.7790410
  31.6683540  58.3738270  36.0626330  30.3079010  58.9049340  35.6639220
  37.9623500  59.4786680  39.8998690  38.4186280  60.2891930  40.1258880
  37.6111710  59.1609820  40.7317180  40.2656110  64.9893020  47.1290990
  40.9098330  65.1952400  47.8064410  40.6285550  64.2281420  46.6761840
  41.5388190  62.9925370  45.8468440  42.1810420  62.2918530  45.9600610
  42.0637540  63.7723810  45.6665330  45.3843910  63.2773990  35.5707580
  45.1581490  62.5604430  36.1632220  44.9940110  63.0286430  34.7329330
  43.3125810  63.7920270  49.0504500  43.6482050  64.3786960  49.7282420
  42.3926150  63.6612980  49.2802290  31.1659940  67.3040850  36.3452040
  31.5257580  67.9030190  35.6909310  31.0252280  67.8500740  37.1187070
  30.8629210  51.5815450  49.8327910  30.1487730  51.7812370  50.4380520
  31.2824250  50.8055020  50.2042710  44.9660160  61.1945930  37.2321740
  44.6781860  61.6558620  38.0199620  45.7612330  60.7343700  37.5005960
  31.1501800  65.5695710  50.8194440  31.2592920  64.6290450  50.6789830
  30.4982360  65.8350460  50.1708170  39.1414390  63.8411600  52.2192560
  38.8211260  63.1220840  52.7638250  38.4672750  64.5166670  52.2928620
  37.1828560  64.6872050  37.1625710  37.1738660  65.4201740  36.5470220
  36.2626920  64.4403630  37.2552670  32.7835200  59.9086940  37.9072470
  32.1763150  60.6485840  37.9167770  33.2584550  59.9986300  37.0810670
  42.3567990  54.0737760  47.5829360  42.7248810  53.2532970  47.9108930
  41.4966190  54.1339650  47.9985010  40.1688160  64.7500290  35.8250900
  40.2700140  64.5464280  34.8952880  39.2689900  64.4958570  36.0298680
  39.3169980  56.7277350  47.8067330  39.8155230  57.2023170  48.4719180
  39.4592930  55.8040870  48.0137360  38.8106270  67.2686610  40.5198570
  39.0647770  67.2308000  39.5977940  37.8618750  67.1419940  40.5126820
  44.8158850  58.1878490  42.0957080  43.8748990  58.2028720  42.2704770
  45.1302920  57.4014450  42.5417380  34.7940490  59.8698090  35.6561040
  35.5603760  59.7579450  36.2186470  34.8715180  59.1736060  35.0037810
  33.4887250  57.3023160  36.3393930  33.5690840  56.3550670  36.4511330
  34.3807000  57.6330040  36.4454590  46.8184430  65.3587340  43.7711340
  46.9431850  66.1818510  44.2435150  47.6849990  65.1478070  43.4235490
  34.2901960  67.4518550  43.4428470  35.0264440  66.9034010  43.7137040
  34.6742880  68.3174560  43.3034460  31.1747440  63.5192120  39.3169980
  30.2487220  63.7613260  39.3075390  31.6403870  64.3466380  39.1954730
  33.2960240  66.6364620  52.6314050  34.0972970  66.9576670  53.0449450
  32.7812060  66.2760200  53.3533960  37.4004270  66.6248860  35.2654040
  38.1932880  66.9137690  34.8135830  36.8808620  66.1941030  34.5866520
  42.1324870  62.7444490  52.5789460  41.5263030  62.7676090  51.8385210
  41.8278980  62.0127530  53.1156710  43.5625240  66.4724780  51.1898870
  44.5146990  66.3882800  51.1399110  43.4153460  67.1366490  51.8632660
  46.4534440  65.8518990  36.6890780  46.1675950  65.4384130  35.8744960
  46.2553990  66.7806700  36.5691300  31.0158050  59.1238080  51.5750100
  31.5197070  58.5445360  52.1466330  30.2765470  59.4078310  52.1126470
  37.9181670  61.8452270  35.1296390  37.8132310  61.2304620  35.8557770
  37.7505890  61.3218160  34.3459400  38.0695990  60.5309070  51.1085620
  37.3041660  61.0994070  51.0240290  38.2511950  60.2385280  50.2153850
  45.2119340  62.2614400  51.6660640  45.9528810  62.5990160  51.1628100
  44.4492020  62.4306460  51.1130410  33.0481130  57.2667670  52.4700170
  33.0886470  56.9681540  53.3785400  33.9026630  57.6675280  52.3107690
  36.8259520  59.8663220  37.6303680  37.2475940  59.7003090  38.4735070
  36.9510360  59.0563450  37.1358820  34.9886940  55.8459770  50.4374660
  34.4583400  55.3550720  49.8098000  35.6575010  56.2743970  49.9032590
  43.8865000  60.3129230  50.2015850  44.3006020  60.4674310  51.0506270
  42.9516000  60.4384450  50.3641630  44.3587170  57.6525390  52.2055000
  44.9407940  56.8977710  52.1175480  44.5348940  58.1832830  51.4286480
  35.4759240  52.8122140  50.5171950  35.3816110  52.1942890  49.7922820
  34.8956630  53.5388430  50.2901860  38.2420680  51.3695380  47.5499340
  37.7937980  51.3919640  46.7044890  37.6085880  50.9714400  48.1469640
  38.6480230  60.2649710  48.1711780  39.0668340  61.1082440  47.9988020
  37.7288860  60.4021750  47.9418560  40.9844130  57.9965890  49.5549620
  41.1040340  57.4007030  50.2944460  41.8438130  58.0335580  49.1350920
  43.3232030  58.5503080  48.1312130  42.7967250  59.0745700  47.5277270
  43.6663370  59.1830470  48.7621860  36.4987650  66.5702720  49.2869510
  35.9608740  67.2948780  48.9678210  36.7521610  66.0933060  48.4966850
  37.7512900  54.5387240  50.8125440  38.3412590  54.2303090  51.5003260
  36.9333140  54.0666990  50.9685340  42.5706330  54.1553050  51.0458460
  41.8821850  53.4934590  50.9808450  43.2912350  53.7091320  51.4906920
  39.3549860  67.8053930  49.5456160  39.2808560  68.7089070  49.8528530
  38.4528700  67.4865830  49.5178230  39.9035190  66.9712440  37.1682520
  40.7985980  67.3097410  37.1901280  39.9352820  66.2491850  36.5406800
  33.5431350  62.3439490  35.3969520  33.9806220  62.8869160  36.0527100
  34.0279080  61.5186440  35.4065860  30.7577150  65.1328520  42.8489780
  31.0880160  64.2649580  42.6168420  31.1868150  65.3387040  43.6794740
  35.3539070  63.4637530  40.5091750  35.0534610  63.3402500  41.4095660
  35.2476560  62.6046120  40.1007480  31.2467360  65.9999110  45.5871410
  30.8098350  66.1799910  46.4195560  31.8145040  66.7573730  45.4453130
  46.8829540  65.5016110  49.8748720  46.2831530  65.5608670  49.1312640
  47.0123440  64.5621090  50.0045570  48.1230990  63.2433930  35.2118430
  47.2923950  63.3110580  35.6825660  48.3002820  64.1338050  34.9085290
  47.5787450  59.9881410  37.7152630  48.3406360  60.5578060  37.8212320
  47.5941820  59.4208610  38.4860940  31.0791790  58.5119340  41.9460290
  30.4240630  58.2430980  41.3019990  31.9169740  58.4023820  41.4962270
  48.5847420  60.8431510  42.5594560  48.9556250  60.0598830  42.1530530
  49.2249350  61.5320610  42.3811860  45.5681180  62.2268090  47.9724880
  44.7541020  62.6565250  48.2350670  45.9755380  62.8386500  47.3593930
  47.6306620  60.2815780  34.8725150  47.9055460  61.1894660  34.7444370
  47.4417360  60.2178310  35.8087140  32.1167720  58.8971910  46.4863630
  32.4840760  58.8099310  47.3659650  31.5478540  58.1338460  46.3870490
  46.9171580  57.3656290  49.4994100  46.6857670  57.1369040  48.5992050
  47.1776130  58.2855840  49.4538990  31.6683720  55.8081000  50.3922050
  30.7739770  55.7747760  50.7315760  32.2081270  56.0067790  51.1573300
  30.2929870  55.7218270  37.8885620  29.3893950  55.9848470  37.7137280
  30.7770490  55.9929440  37.1085580  46.9812640  56.5282130  46.6881370
  46.0315350  56.4945670  46.8026360  47.1625650  57.4382240  46.4531140
  32.8357080  54.7783810  35.7980000  33.5448780  54.3567030  35.3127280
  32.1197020  54.8459040  35.1663350  45.6257230  66.9786690  41.4993150
  46.2216300  66.6571260  40.8227570  45.8835380  66.5058510  42.2906420
  33.5319800  63.4104600  51.6483780  33.4889430  63.0397510  52.5298240
  33.6630810  64.3482170  51.7885600  37.2325830  64.9664190  47.2493500
  36.9917190  65.2338750  46.3624020  38.1728470  65.1369920  47.3044360
  39.4380250  51.4296880  51.0050010  39.3769140  52.0218710  51.7545420
  40.3780630  51.3222840  50.8600270  48.4929990  66.9858570  48.0504140
  47.9988270  67.3827440  47.3331270  47.8843280  66.3607780  48.4441420
  33.3707830  66.3566850  48.7681560  32.7768150  66.2251550  49.5071600
  33.3631670  65.5204990  48.3023660  46.1769440  67.6281990  45.3290880
  45.7172410  68.3797800  44.9548900  45.5481900  66.9088460  45.2705680
  33.0020060  63.7225230  47.7189600  32.2754120  63.1030520  47.6515550
  33.0629210  64.1165840  46.8487680  36.6065160  65.9370230  44.5039010
  37.1230180  65.3257590  43.9787270  37.2562540  66.4399010  44.9950020
  39.3460660  66.8278720  45.3307990  39.6338470  66.5733020  44.4541000
  39.8583880  66.2756080  45.9213560  40.5637670  50.5668920  45.9104500
  39.7809460  51.0414420  46.1901260  40.2700600  49.6623750  45.8017680
  31.2850060  67.0399620  40.9286360  31.1172100  66.4070300  41.6268250
  30.4184570  67.2459020  40.5780550  32.8912760  65.7332850  38.3736500
  32.3660380  66.1140880  37.6698460  32.8157340  66.3583620  39.0946210
  39.4133020  67.7494820  52.6976190  40.3400330  67.5139090  52.7412150
  39.3983450  68.5766820  52.2162220  47.6478080  67.2920390  39.6950440
  47.8230270  66.6058130  39.0511360  46.9499650  67.8167440  39.3027110
  35.4905730  67.6815230  37.2485750  36.2224550  67.3974510  36.7009640
  35.7499400  67.4428510  38.1385130  34.6520520  63.7979960  37.2532080
  34.0229400  64.2665060  37.8017910  34.7668350  62.9529180  37.6878270
  45.9810580  66.9764680  52.5217230  46.7735900  66.4813910  52.3143190
  46.2743730  67.6554820  53.1292840  42.1070240  57.8485620  23.4033280
  42.0264290  56.9340230  23.1324990  41.6934660  58.3452690  22.6972990
  40.2388280  59.6264640  25.2842550  39.4630380  59.1465080  25.5741120
  40.8901210  58.9470290  25.1098710  34.2554110  59.9384450  26.1618310
  33.4238990  59.6833160  26.5614820  34.8635090  60.0095220  26.8976230
  44.2595710  64.0324830  24.0641680  43.7977240  63.2612070  24.3928850
  45.0721260  64.0590900  24.5694130  34.2355370  63.9724540  26.3576330
  34.5383410  63.0822280  26.1786550  34.9798960  64.5294760  26.1298580
  32.6646060  54.8986340  19.9460700  31.7762760  55.2402310  19.8440580
  32.9487250  54.6986660  19.0541530  30.6279070  57.4991990  25.8300400
  31.1995180  56.7314190  25.8304040  30.6280610  57.7980750  24.9207010
  40.4859020  66.3182840  23.6845670  39.8670460  66.7740340  23.1140110
  41.3410800  66.4734300  23.2835370  39.6797270  62.3021830  25.2912710
  39.6105550  61.3611770  25.1301840  40.4417130  62.3923240  25.8635280
  34.8407450  53.4817840  20.9799080  34.9474200  54.3821570  21.2867840
  33.9299810  53.4335810  20.6893730  32.4890610  55.4036850  26.2251670
  33.1700720  55.6675220  26.8439070  32.1738660  54.5637720  26.5589680
  36.6815180  56.4504210  25.3124260  37.1893400  56.9485180  25.9529280
  37.2128420  55.6739410  25.1363620  41.3522370  61.2022080  21.0777580
  40.7339640  61.6671530  20.5140300  41.8645620  61.8949560  21.4947090
  36.2154130  60.7297950  27.7561180  35.8823510  61.3566870  28.3982250
  36.3920810  61.2559830  26.9762850  35.4273230  62.6978750  29.5710360
  36.0447230  63.3729830  29.2894810  34.5666350  63.1066730  29.4797860
  30.7205570  61.8878610  18.4517210  30.3433550  62.3765710  17.7202110
  30.9778640  62.5603890  19.0823740  46.3450820  64.1618160  27.4865000
  45.6614340  64.8317270  27.4781670  46.8845110  64.3598810  26.7209860
  43.8809560  66.0062290  26.2010180  43.8936720  65.6024580  25.3332440
  43.3284780  66.7809580  26.0971610  45.1754980  62.7278510  21.2900350
  45.0651310  61.7852840  21.4149770  45.1723230  63.0894150  22.1763110
  43.2795000  60.9092130  27.5292790  43.6963790  60.6952240  26.6946250
  44.0034820  61.1664920  28.1001410  40.7175260  58.3543830  20.6462840
  39.7904540  58.2881210  20.8751310  40.8700080  59.2923960  20.5318080
  40.7044340  54.6260830  17.6430000  39.7648010  54.7874790  17.7282460
  41.0227600  55.3446510  17.0965990  47.2257100  59.3079350  27.6209030
  46.3975730  59.3772440  27.1459160  47.8207580  59.8933660  27.1524860
  44.7472550  59.9164130  21.1498090  44.1284970  59.5783680  20.5024390
  44.7297000  59.2723890  21.8577280  36.3231900  58.8808570  23.4282570
  35.9188900  58.1685820  22.9328470  36.4095020  58.5361810  24.3170610
  36.7913600  62.5676130  25.5921780  36.4941890  61.9621600  24.9129560
  37.7413420  62.6053440  25.4811140  35.0360520  55.6551780  27.2081610
  35.5875110  55.7647120  26.4334860  35.5504030  56.0289380  27.9236840
  44.8799210  66.1408000  29.2544880  44.4029770  66.9480190  29.0617490
  44.1961000  65.4886330  29.4071090  35.8832030  62.3057820  32.2429580
  34.9860560  62.5297790  32.4902980  35.9084900  62.4292760  31.2940980
  42.9237250  59.1550940  18.1570840  43.3630530  58.3173370  18.0108660
  43.6365670  59.7880340  18.2434980  34.7103250  59.1771140  30.8186950
  34.5711020  60.0493940  31.1874350  33.8284610  58.8343950  30.6734890
  41.0332630  64.0947010  22.1252080  41.4728540  64.8371340  21.7107470
  40.9719520  64.3373580  23.0491040  36.5083600  65.1192840  33.0272100
  36.4799030  65.5235790  32.1600530  36.3448570  64.1903200  32.8643700
  33.0236530  57.7753550  20.9289220  32.9034130  58.5015640  20.3170490
  32.7137420  57.0056460  20.4517130  48.4598420  65.9019940  34.3236270
  48.9358140  66.3802830  35.0025350  49.0805580  65.8337430  33.5981770
  30.6621900  60.9468690  26.7357860  30.7402320  61.0817460  25.7913580
  31.2763580  60.2384580  26.9285980  31.9069530  62.6468880  23.1464040
  31.4997610  62.7883470  22.2917640  32.7982540  62.3629040  22.9435250
  47.8631670  63.0932790  31.4836280  47.9894730  62.8544670  30.5653460
  47.9053050  62.2617330  31.9558360  41.7248410  66.7960790  30.0531090
  42.2393080  66.7068800  30.8553520  40.8817490  67.1420490  30.3459000
  43.7002810  67.0816130  19.4815090  43.5403950  66.7919070  20.3796920
  43.5349520  66.3056260  18.9460320  36.1791190  66.8614660  21.2586710
  36.0033670  65.9450200  21.0454510  35.3246930  67.2201950  21.4984510
  43.4028940  64.5903690  18.0413090  42.7094100  64.5880980  17.3815370
  44.1451800  64.1663010  17.6107260  42.9678870  66.2166400  22.1161580
  43.4235820  65.4355780  22.4300200  43.3071390  66.9273220  22.6602760
  30.7181420  61.9882860  29.2752320  30.8812460  61.5188220  28.4571690
  31.1833870  61.4806420  29.9401160  38.6059010  50.7399320  19.1918720
  37.9813190  50.7359190  19.9172030  38.5189130  49.8730280  18.7954690
  35.2814410  56.2422190  22.0394140  35.0555330  56.0259360  22.9440760
  34.5006940  56.6750650  21.6940110  42.5112170  56.2485560  20.6384790
  41.9121060  56.9721360  20.4548410  43.0591780  56.1862340  19.8561240
  41.1177040  54.8849100  22.6688070  41.5106610  55.2021300  21.8556760
  41.4793890  54.0060980  22.7832590  30.1541210  51.4749900  24.8918270
  29.8654260  52.0452760  25.6043250  30.8986970  50.9954350  25.2549500
  30.3411440  55.4170020  16.1020990  30.2586110  56.3600780  16.2435980
  29.9894500  55.2744930  15.2233340  38.1409570  54.1509050  25.1691340
  38.1445630  53.7099000  24.3195880  39.0360690  54.4726380  25.2763160
  38.2029720  55.1521130  18.1598100  38.3242540  55.1107610  19.1083920
  37.8178230  56.0145280  18.0044830  37.2151220  57.4622270  17.5581400
  36.6468120  57.0140520  16.9317310  37.9240220  57.8215050  17.0246550
  32.2920400  61.3634290  31.4348130  31.9075190  60.7227960  32.0331090
  32.6032590  62.0670410  32.0042860  31.3058030  52.9554520  23.0450220
  31.0204950  52.5910190  23.8828840  31.2436890  52.2234980  22.4313360
  36.2316910  57.2519470  29.2340960  35.9273980  58.1311450  29.4591320
  37.1863370  57.3119260  29.2698400  34.7598700  61.4580460  19.8307810
  33.9860960  60.9178080  19.6706530  35.4893330  60.9387070  19.4925570
  45.5186680  60.4545820  25.6234200  46.2385800  60.9501110  25.2330310
  45.3168500  59.7763710  24.9788070  40.9796620  51.8483780  19.7663590
  40.1661230  51.3496950  19.6908900  40.7858570  52.6882030  19.3499940
  43.6945010  56.2203430  18.0625750  44.5824630  56.5320660  17.8877090
  43.6650100  55.3475680  17.6706330  34.8036100  61.1260840  23.4686620
  35.3214770  60.3229100  23.4143510  34.3520120  61.0639980  24.3103450
  39.6905600  62.3927120  18.7413920  40.0321300  63.1369350  18.2457240
  38.8618310  62.7058240  19.1038750  32.2880640  58.0922210  30.3812320
  31.9295580  58.7576060  30.9685660  31.9935200  57.2605760  30.7524940
  35.4893760  58.5506450  33.2651870  35.1893900  58.6963630  32.3679690
  36.2605000  57.9911740  33.1725260  45.9659280  57.5315270  17.5305610
  45.8823000  57.9629490  16.6802050  46.6853470  57.9913620  17.9632430
  47.0433420  59.9882790  30.6075580  46.3181610  60.5811570  30.4104970
  47.5708880  59.9806330  29.8088950  46.9946530  64.3857530  20.2587740
  46.3522690  63.7313150  20.5331460  46.6077190  64.7912620  19.4828410
  42.5733010  61.7142960  24.1059430  42.9256830  61.1171090  23.4460800
  41.6895340  61.3887190  24.2767680  38.6596290  62.4740650  21.5129840
  39.3467420  63.0209860  21.8937430  37.8728710  63.0181380  21.5479450
  30.7988690  58.0913470  17.0046920  31.6683540  58.3738270  17.2882840
  30.3079010  58.9049340  16.8895730  37.9623500  59.4786680  21.1255200
  38.4186280  60.2891930  21.3515390  37.6111710  59.1609820  21.9573690
  40.2656110  64.9893020  28.3547500  40.9098330  65.1952400  29.0320920
  40.6285550  64.2281420  27.9018350  33.8635280  49.8224330  21.5977720
  33.7349910  49.8142230  22.5462640  33.0397300  50.1607420  21.2468730
  41.5388190  62.9925370  27.0724950  42.1810420  62.2918530  27.1857120
  42.0637540  63.7723810  26.8921840  45.3843910  63.2773990  16.7964090
  45.1581490  62.5604430  17.3888730  44.9940110  63.0286430  15.9585840
  43.3125810  63.7920270  30.2761010  43.6482050  64.3786960  30.9538930
  42.3926150  63.6612980  30.5058800  31.1659940  67.3040850  17.5708550
  31.5257580  67.9030190  16.9165820  31.0252280  67.8500740  18.3443580
  44.9660160  61.1945930  18.4578250  44.6781860  61.6558620  19.2456130
  45.7612330  60.7343700  18.7262470  31.1501800  65.5695710  32.0450950
  31.2592920  64.6290450  31.9046340  30.4982360  65.8350460  31.3964680
  39.1414390  63.8411600  33.4449070  38.8211260  63.1220840  33.9894760
  38.4672750  64.5166670  33.5185130  37.1828560  64.6872050  18.3882220
  37.1738660  65.4201740  17.7726730  36.2626920  64.4403630  18.4809180
  32.7835200  59.9086940  19.1328980  32.1763150  60.6485840  19.1424280
  33.2584550  59.9986300  18.3067180  40.1688160  64.7500290  17.0507410
  40.2700140  64.5464280  16.1209390  39.2689900  64.4958570  17.2555190
  37.6914050  55.3080650  21.0331310  36.9830200  55.7766990  21.4744920
  37.9758530  54.6502660  21.6676500  38.8106270  67.2686610  21.7455080
  39.0647770  67.2308000  20.8234450  37.8618750  67.1419940  21.7383330
  35.8949070  53.6165730  18.4082020  36.7439600  54.0535880  18.3422210
  35.5280340  53.9285990  19.2354080  44.8158850  58.1878490  23.3213590
  43.8748990  58.2028720  23.4961280  45.1302920  57.4014450  23.7673890
  34.7940490  59.8698090  16.8817550  35.5603760  59.7579450  17.4442980
  34.8715180  59.1736060  16.2294320  33.4887250  57.3023160  17.5650440
  33.5690840  56.3550670  17.6767840  34.3807000  57.6330040  17.6711100
  46.8184430  65.3587340  24.9967850  46.9431850  66.1818510  25.4691660
  47.6849990  65.1478070  24.6492000  34.2901960  67.4518550  24.6684980
  35.0264440  66.9034010  24.9393550  34.6742880  68.3174560  24.5290970
  31.1747440  63.5192120  20.5426490  30.2487220  63.7613260  20.5331900
  31.6403870  64.3466380  20.4211240  33.2960240  66.6364620  33.8570560
  34.0972970  66.9576670  34.2705960  32.7812060  66.2760200  34.5790470
  37.4004270  66.6248860  16.4910550  38.1932880  66.9137690  16.0392340
  36.8808620  66.1941030  15.8123030  43.5625240  66.4724780  32.4155380
  44.5146990  66.3882800  32.3655620  43.4153460  67.1366490  33.0889170
  46.4534440  65.8518990  17.9147290  46.1675950  65.4384130  17.1001470
  46.2553990  66.7806700  17.7947810  31.0158050  59.1238080  32.8006610
  31.5197070  58.5445360  33.3722840  30.2765470  59.4078310  33.3382980
  37.9181670  61.8452270  16.3552900  37.8132310  61.2304620  17.0814280
  37.7505890  61.3218160  15.5715910  41.1584400  60.9072300  16.9594890
  40.6094500  61.3541600  17.6037630  41.7803660  60.4021550  17.4832560
  45.2119340  62.2614400  32.8917150  45.9528810  62.5990160  32.3884610
  44.4492020  62.4306460  32.3386920  33.0481130  57.2667670  33.6956680
  33.0886470  56.9681540  34.6041910  33.9026630  57.6675280  33.5364200
  36.8259520  59.8663220  18.8560190  37.2475940  59.7003090  19.6991580
  36.9510360  59.0563450  18.3615330  39.3387160  58.8900830  16.1037290
  39.8592820  58.1749850  15.7378440  39.9855560  59.5286700  16.4037800
  38.6480230  60.2649710  29.3968290  39.0668340  61.1082440  29.2244530
  37.7288860  60.4021750  29.1675070  35.7218420  55.9396450  15.8018350
  35.5207480  55.0763810  16.1631690  35.5510470  55.8529810  14.8639950
  36.4987650  66.5702720  30.5126020  35.9608740  67.2948780  30.1934720
  36.7521610  66.0933060  29.7223360  43.2006730  50.7504680  18.3305230
  43.4809020  49.9072580  18.6864650  42.4272460  50.9827790  18.8443980
  34.5201220  53.0397070  15.7896230  34.8227120  53.0464500  14.8815380
  35.2595810  52.6894930  16.2863890  39.3549860  67.8053930  30.7712670
  39.2808560  68.7089070  31.0785040  38.4528700  67.4865830  30.7434740
  37.7386150  51.9831690  16.7752430  37.3908150  51.3055680  16.1954880
  37.9398920  51.5221200  17.5895820  39.9035190  66.9712440  18.3939030
  40.7985980  67.3097410  18.4157790  39.9352820  66.2491850  17.7663310
  33.5431350  62.3439490  16.6226030  33.9806220  62.8869160  17.2783610
  34.0279080  61.5186440  16.6322370  30.7577150  65.1328520  24.0746290
  31.0880160  64.2649580  23.8424930  31.1868150  65.3387040  24.9051250
  35.3539070  63.4637530  21.7348260  35.0534610  63.3402500  22.6352170
  35.2476560  62.6046120  21.3263990  31.2467360  65.9999110  26.8127920
  30.8098350  66.1799910  27.6452070  31.8145040  66.7573730  26.6709640
  46.8829540  65.5016110  31.1005230  46.2831530  65.5608670  30.3569150
  47.0123440  64.5621090  31.2302080  48.1230990  63.2433930  16.4374940
  47.2923950  63.3110580  16.9082170  48.3002820  64.1338050  16.1341800
  47.5787450  59.9881410  18.9409140  48.3406360  60.5578060  19.0468830
  47.5941820  59.4208610  19.7117450  31.0791790  58.5119340  23.1716800
  30.4240630  58.2430980  22.5276500  31.9169740  58.4023820  22.7218780
  48.5847420  60.8431510  23.7851070  48.9556250  60.0598830  23.3787040
  49.2249350  61.5320610  23.6068370  45.5681180  62.2268090  29.1981390
  44.7541020  62.6565250  29.4607180  45.9755380  62.8386500  28.5850440
  47.6306620  60.2815780  16.0981660  47.9055460  61.1894660  15.9700880
  47.4417360  60.2178310  17.0343650  44.0282230  53.3060630  17.3935290
  44.4467110  53.1191610  16.5531950  43.7218290  52.4539680  17.7038220
  47.5271960  58.2184770  21.0911090  47.1515560  57.4512700  20.6592380
  46.7975080  58.6007470  21.5786020  32.1167720  58.8971910  27.7120140
  32.4840760  58.8099310  28.5916160  31.5478540  58.1338460  27.6127000
  46.9171580  57.3656290  30.7250610  46.6857670  57.1369040  29.8248560
  47.1776130  58.2855840  30.6795500  31.6683720  55.8081000  31.6178560
  30.7739770  55.7747760  31.9572270  32.2081270  56.0067790  32.3829810
  30.2929870  55.7218270  19.1142130  29.3893950  55.9848470  18.9393790
  30.7770490  55.9929440  18.3342090  32.8357080  54.7783810  17.0236510
  33.5448780  54.3567030  16.5383790  32.1197020  54.8459040  16.3919860
  32.4831240  50.8323140  16.0639160  33.2059370  51.3732080  16.3820380
  32.7555760  50.5586560  15.1880700  48.6100320  52.1684480  16.1054560
  49.5349630  52.0365660  15.8972850  48.5876110  52.2477300  17.0591010
  45.6257230  66.9786690  22.7249660  46.2216300  66.6571260  22.0484080
  45.8835380  66.5058510  23.5162930  33.5319800  63.4104600  32.8740290
  33.4889430  63.0397510  33.7554750  33.6630810  64.3482170  33.0142110
  37.2325830  64.9664190  28.4750010  36.9917190  65.2338750  27.5880530
  38.1728470  65.1369920  28.5300870  48.4929990  66.9858570  29.2760650
  47.9988270  67.3827440  28.5587780  47.8843280  66.3607780  29.6697930
  33.3707830  66.3566850  29.9938070  32.7768150  66.2251550  30.7328110
  33.3631670  65.5204990  29.5280170  46.1769440  67.6281990  26.5547390
  45.7172410  68.3797800  26.1805410  45.5481900  66.9088460  26.4962190
  33.0020060  63.7225230  28.9446110  32.2754120  63.1030520  28.8772060
  33.0629210  64.1165840  28.0744190  36.6065160  65.9370230  25.7295520
  37.1230180  65.3257590  25.2043780  37.2562540  66.4399010  26.2206530
  39.3460660  66.8278720  26.5564500  39.6338470  66.5733020  25.6797510
  39.8583880  66.2756080  27.1470070  31.2850060  67.0399620  22.1542870
  31.1172100  66.4070300  22.8524760  30.4184570  67.2459020  21.8037060
  31.9078080  50.8716400  19.6574730  32.6657440  50.9845280  19.0838760
  31.4455250  51.7085600  19.6118160  38.4491890  52.9855670  22.6477040
  37.6366400  52.6112560  22.3072920  38.9533530  52.2300750  22.9498230
  32.8912760  65.7332850  19.5993010  32.3660380  66.1140880  18.8954970
  32.8157340  66.3583620  20.3202720  34.2803230  51.3980450  18.1976700
  34.8095990  50.6110250  18.0684650  34.9131550  52.0771640  18.4312230
  36.4741070  51.1355590  21.2522090  35.8443810  50.4342900  21.4192220
  35.9346210  51.8959720  21.0355250  39.4133020  67.7494820  33.9232700
  40.3400330  67.5139090  33.9668660  39.3983450  68.5766820  33.4418730
  47.6478080  67.2920390  20.9206950  47.8230270  66.6058130  20.2767870
  46.9499650  67.8167440  20.5283620  35.4905730  67.6815230  18.4742260
  36.2224550  67.3974510  17.9266150  35.7499400  67.4428510  19.3641640
  34.6520520  63.7979960  18.4788590  34.0229400  64.2665060  19.0274420
  34.7668350  62.9529180  18.9134780  45.9810580  66.9764680  33.7473740
  46.7735900  66.4813910  33.5399700  46.2743730  67.6554820  34.3549350
  42.1070240  57.8485620   4.6289790  42.0264290  56.9340230   4.3581500
  41.6934660  58.3452690   3.9229500  40.2388280  59.6264640   6.5099060
  39.4630380  59.1465080   6.7997630  40.8901210  58.9470290   6.3355220
  34.2554110  59.9384450   7.3874820  33.4238990  59.6833160   7.7871330
  34.8635090  60.0095220   8.1232740  44.2595710  64.0324830   5.2898190
  43.7977240  63.2612070   5.6185360  45.0721260  64.0590900   5.7950640
  34.2355370  63.9724540   7.5832840  34.5383410  63.0822280   7.4043060
  34.9798960  64.5294760   7.3555090  30.6279070  57.4991990   7.0556910
  31.1995180  56.7314190   7.0560550  30.6280610  57.7980750   6.1463520
  40.4859020  66.3182840   4.9102180  39.8670460  66.7740340   4.3396620
  41.3410800  66.4734300   4.5091880  39.6797270  62.3021830   6.5169220
  39.6105550  61.3611770   6.3558350  40.4417130  62.3923240   7.0891790
  31.8703940  52.9076350   8.8425840  31.6906780  52.0102100   9.1228600
  31.4684020  53.4548220   9.5172790  40.7102440  55.1092210   6.7438150
  41.0867260  54.2364090   6.6311820  40.6121950  55.4450910   5.8528590
  34.8407450  53.4817840   2.2055590  34.9474200  54.3821570   2.5124350
  33.9299810  53.4335810   1.9150240  44.4926560  52.6042650   3.6766490
  45.3136180  52.1139220   3.7191970  44.5260640  53.1940310   4.4298330
  32.4890610  55.4036850   7.4508180  33.1700720  55.6675220   8.0695580
  32.1738660  54.5637720   7.7846190  36.6815180  56.4504210   6.5380770
  37.1893400  56.9485180   7.1785790  37.2128420  55.6739410   6.3620130
  48.7826110  54.6209400  10.2410120  48.0778280  55.0091110   9.7225230
  49.0484030  55.3159690  10.8431050  34.9651280  51.0902770  10.8044190
  34.9669720  51.6075160   9.9990090  34.1355590  50.6132950  10.7814120
  41.3522370  61.2022080   2.3034090  40.7339640  61.6671530   1.7396810
  41.8645620  61.8949560   2.7203600  36.2154130  60.7297950   8.9817690
  35.8823510  61.3566870   9.6238760  36.3920810  61.2559830   8.2019360
  44.7288040  54.5443030   6.4494030  44.0243610  54.8327920   7.0297140
  45.0900200  55.3543140   6.0893590  34.6466610  52.8012730   8.8114640
  34.9883420  53.6454780   8.5168510  33.7082420  52.9496470   8.9279980
  35.4273230  62.6978750  10.7966870  36.0447230  63.3729830  10.5151320
  34.5666350  63.1066730  10.7054370  46.3450820  64.1618160   8.7121510
  45.6614340  64.8317270   8.7038180  46.8845110  64.3598810   7.9466370
  47.7974960  53.9897820   6.8403240  46.8499870  54.0236800   6.9718670
  48.1224950  54.8036770   7.2252600  38.3294500  50.2895000   5.1359230
  38.6369480  49.7341890   4.4194730  37.3995200  50.4239460   4.9532220
  43.8809560  66.0062290   7.4266690  43.8936720  65.6024580   6.5588950
  43.3284780  66.7809580   7.3228120  45.1754980  62.7278510   2.5156860
  45.0651310  61.7852840   2.6406280  45.1723230  63.0894150   3.4019620
  43.2795000  60.9092130   8.7549300  43.6963790  60.6952240   7.9202760
  44.0034820  61.1664920   9.3257920  40.7175260  58.3543830   1.8719350
  39.7904540  58.2881210   2.1007820  40.8700080  59.2923960   1.7574590
  47.2257100  59.3079350   8.8465540  46.3975730  59.3772440   8.3715670
  47.8207580  59.8933660   8.3781370  44.7472550  59.9164130   2.3754600
  44.1284970  59.5783680   1.7280900  44.7297000  59.2723890   3.0833790
  44.1899110  56.0948670   9.7920410  43.7770290  56.9202380  10.0460400
  43.4575060  55.5093710   9.5996770  36.3231900  58.8808570   4.6539080
  35.9188900  58.1685820   4.1584980  36.4095020  58.5361810   5.5427120
  36.7913600  62.5676130   6.8178290  36.4941890  61.9621600   6.1386070
  37.7413420  62.6053440   6.7067650  35.0360520  55.6551780   8.4338120
  35.5875110  55.7647120   7.6591370  35.5504030  56.0289380   9.1493350
  44.8799210  66.1408000  10.4801390  44.4029770  66.9480190  10.2874000
  44.1961000  65.4886330  10.6327600  35.8832030  62.3057820  13.4686090
  34.9860560  62.5297790  13.7159490  35.9084900  62.4292760  12.5197490
  34.7103250  59.1771140  12.0443460  34.5711020  60.0493940  12.4130860
  33.8284610  58.8343950  11.8991400  41.0332630  64.0947010   3.3508590
  41.4728540  64.8371340   2.9363980  40.9719520  64.3373580   4.2747550
  36.5083600  65.1192840  14.2528610  36.4799030  65.5235790  13.3857040
  36.3448570  64.1903200  14.0900210  33.0236530  57.7753550   2.1545730
  32.9034130  58.5015640   1.5427000  32.7137420  57.0056460   1.6773640
  48.4598420  65.9019940  15.5492780  48.9358140  66.3802830  16.2281860
  49.0805580  65.8337430  14.8238280  30.6621900  60.9468690   7.9614370
  30.7402320  61.0817460   7.0170090  31.2763580  60.2384580   8.1542490
  31.9069530  62.6468880   4.3720550  31.4997610  62.7883470   3.5174150
  32.7982540  62.3629040   4.1691760  47.8631670  63.0932790  12.7092790
  47.9894730  62.8544670  11.7909970  47.9053050  62.2617330  13.1814870
  41.7248410  66.7960790  11.2787600  42.2393080  66.7068800  12.0810030
  40.8817490  67.1420490  11.5715510  36.1791190  66.8614660   2.4843220
  36.0033670  65.9450200   2.2711020  35.3246930  67.2201950   2.7241020
  42.9678870  66.2166400   3.3418090  43.4235820  65.4355780   3.6556710
  43.3071390  66.9273220   3.8859270  47.7155680  55.1465250  13.6742530
  47.0999950  55.6544920  13.1457990  47.3952100  54.2463580  13.6168470
  30.7181420  61.9882860  10.5008830  30.8812460  61.5188220   9.6828200
  31.1833870  61.4806420  11.1657670  35.4900190  51.1188620   5.5369400
  35.0468340  51.8998160   5.2053920  36.0485180  51.4418510   6.2440340
  39.7770000  53.9857140  11.1404720  39.3149370  54.1940160  11.9524660
  39.3748110  53.1716490  10.8375390  44.7774510  55.2066090  12.2701380
  43.9268100  54.9071840  12.5910450  44.6176300  55.4508100  11.3585200
  41.8724220  56.7067840  14.3700170  42.1977630  55.8731590  14.0302400
  42.6604550  57.2296360  14.5178500  37.5276090  51.6635950   7.3959000
  37.8248420  52.5698780   7.3151020  38.0761650  51.1754730   6.7818570
  35.2814410  56.2422190   3.2650650  35.0555330  56.0259360   4.1697270
  34.5006940  56.6750650   2.9196620  37.7213620  57.1407770  13.9310920
  37.6257220  56.2002500  13.7811320  38.5645600  57.3622840  13.5358990
  41.1177040  54.8849100   3.8944580  41.5106610  55.2021300   3.0813270
  41.4793890  54.0060980   4.0089100  32.8524160  53.5521440  12.0844700
  32.4587550  54.3996650  12.2917480  32.1642560  52.9147810  12.2753340
  39.4269210  53.6356410  15.1541440  38.7367530  53.4428610  15.7887530
  40.1701510  53.9191050  15.6865740  30.1541210  51.4749900   6.1174780
  29.8654260  52.0452760   6.8299760  30.8986970  50.9954350   6.4806010
  41.7032180  57.4754850   7.9895360  40.9713300  57.9841660   8.3385460
  41.3056520  56.6584830   7.6884140  38.1409570  54.1509050   6.3947850
  38.1445630  53.7099000   5.5452390  39.0360690  54.4726380   6.5019670
  33.9911950  54.0335540   5.3542060  33.6512000  54.5110770   6.1109110
  33.2289270  53.5800660   4.9943160  42.1658090  52.9288530   7.4018300
  42.1830830  53.3797180   8.2460150  41.9173670  52.0294170   7.6151740
  45.5928840  50.3420710  13.2404680  45.9174610  49.6110370  13.7662660
  45.6285350  50.0234350  12.3385670  32.2920400  61.3634290  12.6604640
  31.9075190  60.7227960  13.2587600  32.6032590  62.0670410  13.2299370
  38.4417540  58.2110830   8.1413260  38.8087670  57.7369400   8.8874600
  38.2522600  59.0852400   8.4821600  31.3058030  52.9554520   4.2706730
  31.0204950  52.5910190   5.1085350  31.2436890  52.2234980   3.6569870
  36.2316910  57.2519470  10.4597470  35.9273980  58.1311450  10.6847830
  37.1863370  57.3119260  10.4954910  45.5186680  60.4545820   6.8490710
  46.2385800  60.9501110   6.4586820  45.3168500  59.7763710   6.2044580
  40.9005480  60.5254880  12.7359710  40.8342790  59.6050550  12.4817300
  40.2710620  60.6230320  13.4504350  34.8036100  61.1260840   4.6943130
  35.3214770  60.3229100   4.6400020  34.3520120  61.0639980   5.5359960
  32.2880640  58.0922210  11.6068830  31.9295580  58.7576060  12.1942170
  31.9935200  57.2605760  11.9781450  35.4893760  58.5506450  14.4908380
  35.1893900  58.6963630  13.5936200  36.2605000  57.9911740  14.3981770
  40.8322210  63.3475450  12.4863510  40.8466750  62.4156410  12.2682420
  40.1247310  63.4335210  13.1253280  47.0433420  59.9882790  11.8332090
  46.3181610  60.5811570  11.6361480  47.5708880  59.9806330  11.0345460
  42.5733010  61.7142960   5.3315940  42.9256830  61.1171090   4.6717310
  41.6895340  61.3887190   5.5024190  38.6596290  62.4740650   2.7386350
  39.3467420  63.0209860   3.1193940  37.8728710  63.0181380   2.7735960
  37.9623500  59.4786680   2.3511710  38.4186280  60.2891930   2.5771900
  37.6111710  59.1609820   3.1830200  40.2656110  64.9893020   9.5804010
  40.9098330  65.1952400  10.2577430  40.6285550  64.2281420   9.1274860
  33.8635280  49.8224330   2.8234230  33.7349910  49.8142230   3.7719150
  33.0397300  50.1607420   2.4725240  41.5388190  62.9925370   8.2981460
  42.1810420  62.2918530   8.4113630  42.0637540  63.7723810   8.1178350
  43.3125810  63.7920270  11.5017520  43.6482050  64.3786960  12.1795440
  42.3926150  63.6612980  11.7315310  30.8629210  51.5815450  12.2840930
  30.1487730  51.7812370  12.8893540  31.2824250  50.8055020  12.6555730
  31.1501800  65.5695710  13.2707460  31.2592920  64.6290450  13.1302850
  30.4982360  65.8350460  12.6221190  39.1414390  63.8411600  14.6705580
  38.8211260  63.1220840  15.2151270  38.4672750  64.5166670  14.7441640
  42.3567990  54.0737760  10.0342380  42.7248810  53.2532970  10.3621950
  41.4966190  54.1339650  10.4498030  37.6914050  55.3080650   2.2587820
  36.9830200  55.7766990   2.7001430  37.9758530  54.6502660   2.8933010
  39.3169980  56.7277350  10.2580350  39.8155230  57.2023170  10.9232200
  39.4592930  55.8040870  10.4650380  41.7229480  52.0331310   3.6983610
  41.5997260  52.0517440   2.7493120  42.6714040  52.0810250   3.8182010
  38.8106270  67.2686610   2.9711590  39.0647770  67.2308000   2.0490960
  37.8618750  67.1419940   2.9639840  46.5236840  52.9445310  11.1008740
  46.0210440  53.6850710  11.4402550  47.3393500  53.3329310  10.7845530
  44.8158850  58.1878490   4.5470100  43.8748990  58.2028720   4.7217790
  45.1302920  57.4014450   4.9930400  46.8184430  65.3587340   6.2224360
  46.9431850  66.1818510   6.6948170  47.6849990  65.1478070   5.8748510
  34.2901960  67.4518550   5.8941490  35.0264440  66.9034010   6.1650060
  34.6742880  68.3174560   5.7547480  31.1747440  63.5192120   1.7683000
  30.2487220  63.7613260   1.7588410  31.6403870  64.3466380   1.6467750
  33.2960240  66.6364620  15.0827070  34.0972970  66.9576670  15.4962470
  32.7812060  66.2760200  15.8046980  42.1324870  62.7444490  15.0302480
  41.5263030  62.7676090  14.2898230  41.8278980  62.0127530  15.5669730
  43.5625240  66.4724780  13.6411890  44.5146990  66.3882800  13.5912130
  43.4153460  67.1366490  14.3145680  31.0158050  59.1238080  14.0263120
  31.5197070  58.5445360  14.5979350  30.2765470  59.4078310  14.5639490
  38.0695990  60.5309070  13.5598640  37.3041660  61.0994070  13.4753310
  38.2511950  60.2385280  12.6666870  45.2119340  62.2614400  14.1173660
  45.9528810  62.5990160  13.6141120  44.4492020  62.4306460  13.5643430
  33.0481130  57.2667670  14.9213190  33.0886470  56.9681540  15.8298420
  33.9026630  57.6675280  14.7620710  34.9886940  55.8459770  12.8887680
  34.4583400  55.3550720  12.2611020  35.6575010  56.2743970  12.3545610
  43.8865000  60.3129230  12.6528870  44.3006020  60.4674310  13.5019290
  42.9516000  60.4384450  12.8154650  44.3587170  57.6525390  14.6568020
  44.9407940  56.8977710  14.5688500  44.5348940  58.1832830  13.8799500
  35.4759240  52.8122140  12.9684970  35.3816110  52.1942890  12.2435840
  34.8956630  53.5388430  12.7414880  38.2420680  51.3695380  10.0012360
  37.7937980  51.3919640   9.1557910  37.6085880  50.9714400  10.5982660
  38.6480230  60.2649710  10.6224800  39.0668340  61.1082440  10.4501040
  37.7288860  60.4021750  10.3931580  40.9844130  57.9965890  12.0062640
  41.1040340  57.4007030  12.7457480  41.8438130  58.0335580  11.5863940
  43.3232030  58.5503080  10.5825150  42.7967250  59.0745700   9.9790290
  43.6663370  59.1830470  11.2134880  36.4987650  66.5702720  11.7382530
  35.9608740  67.2948780  11.4191230  36.7521610  66.0933060  10.9479870
  37.7512900  54.5387240  13.2638460  38.3412590  54.2303090  13.9516280
  36.9333140  54.0666990  13.4198360  42.5706330  54.1553050  13.4971480
  41.8821850  53.4934590  13.4321470  43.2912350  53.7091320  13.9419940
  39.3549860  67.8053930  11.9969180  39.2808560  68.7089070  12.3041550
  38.4528700  67.4865830  11.9691250  30.7577150  65.1328520   5.3002800
  31.0880160  64.2649580   5.0681440  31.1868150  65.3387040   6.1307760
  35.3539070  63.4637530   2.9604770  35.0534610  63.3402500   3.8608680
  35.2476560  62.6046120   2.5520500  31.2467360  65.9999110   8.0384430
  30.8098350  66.1799910   8.8708580  31.8145040  66.7573730   7.8966150
  46.8829540  65.5016110  12.3261740  46.2831530  65.5608670  11.5825660
  47.0123440  64.5621090  12.4558590  31.0791790  58.5119340   4.3973310
  30.4240630  58.2430980   3.7533010  31.9169740  58.4023820   3.9475290
  48.5847420  60.8431510   5.0107580  48.9556250  60.0598830   4.6043550
  49.2249350  61.5320610   4.8324880  45.5681180  62.2268090  10.4237900
  44.7541020  62.6565250  10.6863690  45.9755380  62.8386500   9.8106950
  47.5271960  58.2184770   2.3167600  47.1515560  57.4512700   1.8848890
  46.7975080  58.6007470   2.8042530  32.1167720  58.8971910   8.9376650
  32.4840760  58.8099310   9.8172670  31.5478540  58.1338460   8.8383510
  46.9171580  57.3656290  11.9507120  46.6857670  57.1369040  11.0505070
  47.1776130  58.2855840  11.9052010  31.6683720  55.8081000  12.8435070
  30.7739770  55.7747760  13.1828780  32.2081270  56.0067790  13.6086320
  45.3559650  52.5912720  14.7286820  46.2329830  52.5996120  15.1120820
  45.3680490  51.8543560  14.1179170  46.8022920  56.4442260   5.6174840
  47.3260400  55.9504910   4.9865010  47.3882340  56.5792620   6.3622410
  46.9812640  56.5282130   9.1394390  46.0315350  56.4945670   9.2539380
  47.1625650  57.4382240   8.9044160  32.1723430  50.0829330   7.1918290
  32.8199620  49.5326710   6.7513450  32.5925270  50.3372480   8.0134100
  47.7210050  54.3376560   4.0904930  47.6109330  54.1832600   5.0287200
  48.4817640  53.8097500   3.8480340  46.0675770  50.2770690  10.5487930
  46.7047990  50.8904830  10.9147120  46.2150660  50.3131350   9.6037160
  45.6257230  66.9786690   3.9506170  46.2216300  66.6571260   3.2740590
  45.8835380  66.5058510   4.7419440  31.9255430  50.2385000   9.9343610
  31.5770250  50.6948820  10.7001790  31.5943130  49.3442130  10.0166040
  33.5319800  63.4104600  14.0996800  33.4889430  63.0397510  14.9811260
  33.6630810  64.3482170  14.2398620  37.2325830  64.9664190   9.7006520
  36.9917190  65.2338750   8.8137040  38.1728470  65.1369920   9.7557380
  39.4380250  51.4296880  13.4563030  39.3769140  52.0218710  14.2058440
  40.3780630  51.3222840  13.3113290  42.0754810  51.0866940  13.0955320
  42.6895220  51.4046230  12.4336400  42.6204370  50.6015530  13.7151180
  48.4929990  66.9858570  10.5017160  47.9988270  67.3827440   9.7844290
  47.8843280  66.3607780  10.8954440  32.5976070  49.7661200  13.2094380
  33.1459060  49.5849250  12.4460490  32.6631380  48.9755310  13.7450690
  33.3707830  66.3566850  11.2194580  32.7768150  66.2251550  11.9584620
  33.3631670  65.5204990  10.7536680  42.8162850  49.6499080   9.4224610
  41.9422690  49.9834190   9.2197540  42.7073600  49.1772260  10.2476480
  43.7234830  51.8569950  10.8066330  43.3948190  51.0421710  10.4268060
  44.6717130  51.8139760  10.6832020  46.1769440  67.6281990   7.7803900
  45.7172410  68.3797800   7.4061920  45.5481900  66.9088460   7.7218700
  33.0020060  63.7225230  10.1702620  32.2754120  63.1030520  10.1028570
  33.0629210  64.1165840   9.3000700  36.6065160  65.9370230   6.9552030
  37.1230180  65.3257590   6.4300290  37.2562540  66.4399010   7.4463040
  39.3460660  66.8278720   7.7821010  39.6338470  66.5733020   6.9054020
  39.8583880  66.2756080   8.3726580  40.5637670  50.5668920   8.3617520
  39.7809460  51.0414420   8.6414280  40.2700600  49.6623750   8.2530700
  45.1158740  51.2692020   6.4066610  45.5566830  51.2137120   5.5588210
  44.8466330  52.1850030   6.4776790  46.9797310  50.9007260   4.4175430
  46.9185710  49.9568480   4.2706450  47.7589340  51.0087350   4.9628890
  31.2850060  67.0399620   3.3799380  31.1172100  66.4070300   4.0781270
  30.4184570  67.2459020   3.0293570  38.4491890  52.9855670   3.8733550
  37.6366400  52.6112560   3.5329430  38.9533530  52.2300750   4.1754740
  42.9516870  49.6498120   5.1116620  43.5546240  50.2218330   5.5865140
  42.2109860  50.2137560   4.8890520  36.4741070  51.1355590   2.4778600
  35.8443810  50.4342900   2.6448730  35.9346210  51.8959720   2.2611760
  39.4133020  67.7494820  15.1489210  40.3400330  67.5139090  15.1925170
  39.3983450  68.5766820  14.6675240  47.6478080  67.2920390   2.1463460
  47.8230270  66.6058130   1.5024380  46.9499650  67.8167440   1.7540130
  36.5996630  50.4139570  14.9131090  36.3180900  50.9173170  14.1491910
  36.9816330  49.6161320  14.5473220  43.2012090  49.8293150  15.4911560
  43.0877540  50.1487760  16.3863080  44.0181830  50.2305660  15.1948840
  45.9810580  66.9764680  14.9730250  46.7735900  66.4813910  14.7656210
  46.2743730  67.6554820  15.5805860  42.1070240  39.0742130  79.7263750
  42.0264290  38.1596740  79.4555460  41.6934660  39.5709200  79.0203460
  40.2388280  40.8521150  81.6073020  39.4630380  40.3721590  81.8971590
  40.8901210  40.1726800  81.4329180  34.2554110  41.1640960  82.4848780
  33.4238990  40.9089670  82.8845290  34.8635090  41.2351730  83.2206700
  44.2595710  45.2581340  80.3872150  43.7977240  44.4868580  80.7159320
  45.0721260  45.2847410  80.8924600  34.2355370  45.1981050  82.6806800
  34.5383410  44.3078790  82.5017020  34.9798960  45.7551270  82.4529050
  32.6646060  36.1242850  76.2691170  31.7762760  36.4658820  76.1671050
  32.9487250  35.9243170  75.3772000  30.6279070  38.7248500  82.1530870
  31.1995180  37.9570700  82.1534510  30.6280610  39.0237260  81.2437480
  40.4859020  47.5439350  80.0076140  39.8670460  47.9996850  79.4370580
  41.3410800  47.6990810  79.6065840  39.6797270  43.5278340  81.6143180
  39.6105550  42.5868280  81.4532310  40.4417130  43.6179750  82.1865750
  31.8703940  34.1332860  83.9399800  31.6906780  33.2358610  84.2202560
  31.4684020  34.6804730  84.6146750  40.7102440  36.3348720  81.8412110
  41.0867260  35.4620600  81.7285780  40.6121950  36.6707420  80.9502550
  34.8407450  34.7074350  77.3029550  34.9474200  35.6078080  77.6098310
  33.9299810  34.6592320  77.0124200  44.4926560  33.8299160  78.7740450
  45.3136180  33.3395730  78.8165930  44.5260640  34.4196820  79.5272290
  32.4890610  36.6293360  82.5482140  33.1700720  36.8931730  83.1669540
  32.1738660  35.7894230  82.8820150  36.6815180  37.6760720  81.6354730
  37.1893400  38.1741690  82.2759750  37.2128420  36.8995920  81.4594090
  48.7826110  35.8465910  85.3384080  48.0778280  36.2347620  84.8199190
  49.0484030  36.5416200  85.9405010  34.9651280  32.3159280  85.9018150
  34.9669720  32.8331670  85.0964050  34.1355590  31.8389460  85.8788080
  41.3522370  42.4278590  77.4008050  40.7339640  42.8928040  76.8370770
  41.8645620  43.1206070  77.8177560  36.2154130  41.9554460  84.0791650
  35.8823510  42.5823380  84.7212720  36.3920810  42.4816340  83.2993320
  44.7288040  35.7699540  81.5467990  44.0243610  36.0584430  82.1271100
  45.0900200  36.5799650  81.1867550  34.6466610  34.0269240  83.9088600
  34.9883420  34.8711290  83.6142470  33.7082420  34.1752980  84.0253940
  35.4273230  43.9235260  85.8940830  36.0447230  44.5986340  85.6125280
  34.5666350  44.3323240  85.8028330  30.7205570  43.1135120  74.7747680
  30.3433550  43.6022220  74.0432580  30.9778640  43.7860400  75.4054210
  46.3450820  45.3874670  83.8095470  45.6614340  46.0573780  83.8012140
  46.8845110  45.5855320  83.0440330  47.7974960  35.2154330  81.9377200
  46.8499870  35.2493310  82.0692630  48.1224950  36.0293280  82.3226560
  38.3294500  31.5151510  80.2333190  38.6369480  30.9598400  79.5168690
  37.3995200  31.6495970  80.0506180  43.8809560  47.2318800  82.5240650
  43.8936720  46.8281090  81.6562910  43.3284780  48.0066090  82.4202080
  45.1754980  43.9535020  77.6130820  45.0651310  43.0109350  77.7380240
  45.1723230  44.3150660  78.4993580  43.2795000  42.1348640  83.8523260
  43.6963790  41.9208750  83.0176720  44.0034820  42.3921430  84.4231880
  40.7175260  39.5800340  76.9693310  39.7904540  39.5137720  77.1981780
  40.8700080  40.5180470  76.8548550  40.7044340  35.8517340  73.9660470
  39.7648010  36.0131300  74.0512930  41.0227600  36.5703020  73.4196460
  47.2257100  40.5335860  83.9439500  46.3975730  40.6028950  83.4689630
  47.8207580  41.1190170  83.4755330  44.7472550  41.1420640  77.4728560
  44.1284970  40.8040190  76.8254860  44.7297000  40.4980400  78.1807750
  44.1899110  37.3205180  84.8894370  43.7770290  38.1458890  85.1434360
  43.4575060  36.7350220  84.6970730  36.3231900  40.1065080  79.7513040
  35.9188900  39.3942330  79.2558940  36.4095020  39.7618320  80.6401080
  36.7913600  43.7932640  81.9152250  36.4941890  43.1878110  81.2360030
  37.7413420  43.8309950  81.8041610  35.0360520  36.8808290  83.5312080
  35.5875110  36.9903630  82.7565330  35.5504030  37.2545890  84.2467310
  44.8799210  47.3664510  85.5775350  44.4029770  48.1736700  85.3847960
  44.1961000  46.7142840  85.7301560  42.9237250  40.3807450  74.4801310
  43.3630530  39.5429880  74.3339130  43.6365670  41.0136850  74.5665450
  41.0332630  45.3203520  78.4482550  41.4728540  46.0627850  78.0337940
  40.9719520  45.5630090  79.3721510  46.5054390  31.6350260  72.7942350
  46.1927050  31.7277090  73.6941420  47.2666860  32.2131290  72.7439780
  33.0236530  39.0010060  77.2519690  32.9034130  39.7272150  76.6400960
  32.7137420  38.2312970  76.7747600  30.6621900  42.1725200  83.0588330
  30.7402320  42.3073970  82.1144050  31.2763580  41.4641090  83.2516450
  31.9069530  43.8725390  79.4694510  31.4997610  44.0139980  78.6148110
  32.7982540  43.5885550  79.2665720  43.7002810  48.3072640  75.8045560
  43.5403950  48.0175580  76.7027390  43.5349520  47.5312770  75.2690790
  36.1791190  48.0871170  77.5817180  36.0033670  47.1706710  77.3684980
  35.3246930  48.4458460  77.8214980  43.4028940  45.8160200  74.3643560
  42.7094100  45.8137490  73.7045840  44.1451800  45.3919520  73.9337730
  42.9678870  47.4422910  78.4392050  43.4235820  46.6612290  78.7530670
  43.3071390  48.1529730  78.9833230  30.7181420  43.2139370  85.5982790
  30.8812460  42.7444730  84.7802160  31.1833870  42.7062930  86.2631630
  35.4900190  32.3445130  80.6343360  35.0468340  33.1254670  80.3027880
  36.0485180  32.6675020  81.3414300  38.6059010  31.9655830  75.5149190
  37.9813190  31.9615700  76.2402500  38.5189130  31.0986790  75.1185160
  37.5276090  32.8892460  82.4932960  37.8248420  33.7955290  82.4124980
  38.0761650  32.4011240  81.8792530  35.2814410  37.4678700  78.3624610
  35.0555330  37.2515870  79.2671230  34.5006940  37.9007160  78.0170580
  42.5112170  37.4742070  76.9615260  41.9121060  38.1977870  76.7778880
  43.0591780  37.4118850  76.1791710  41.1177040  36.1105610  78.9918540
  41.5106610  36.4277810  78.1787230  41.4793890  35.2317490  79.1063060
  30.1541210  32.7006410  81.2148740  29.8654260  33.2709270  81.9273720
  30.8986970  32.2210860  81.5779970  30.3411440  36.6426530  72.4251460
  30.2586110  37.5857290  72.5666450  29.9894500  36.5001440  71.5463810
  41.7032180  38.7011360  83.0869320  40.9713300  39.2098170  83.4359420
  41.3056520  37.8841340  82.7858100  38.1409570  35.3765560  81.4921810
  38.1445630  34.9355510  80.6426350  39.0360690  35.6982890  81.5993630
  33.9911950  35.2592050  80.4516020  33.6512000  35.7367280  81.2083070
  33.2289270  34.8057170  80.0917120  38.2029720  36.3777640  74.4828570
  38.3242540  36.3364120  75.4314390  37.8178230  37.2401790  74.3275300
  42.1658090  34.1545040  82.4992260  42.1830830  34.6053690  83.3434110
  41.9173670  33.2550680  82.7125700  37.2151220  38.6878780  73.8811870
  36.6468120  38.2397030  73.2547780  37.9240220  39.0471560  73.3477020
  38.4417540  39.4367340  83.2387220  38.8087670  38.9625910  83.9848560
  38.2522600  40.3108910  83.5795560  31.3058030  34.1811030  79.3680690
  31.0204950  33.8166700  80.2059310  31.2436890  33.4491490  78.7543830
  36.2316910  38.4775980  85.5571430  35.9273980  39.3567960  85.7821790
  37.1863370  38.5375770  85.5928870  34.7598700  42.6836970  76.1538280
  33.9860960  42.1434590  75.9937000  35.4893330  42.1643580  75.8156040
  45.5186680  41.6802330  81.9464670  46.2385800  42.1757620  81.5560780
  45.3168500  41.0020220  81.3018540  40.9796620  33.0740290  76.0894060
  40.1661230  32.5753460  76.0139370  40.7858570  33.9138540  75.6730410
  43.6945010  37.4459940  74.3856220  44.5824630  37.7577170  74.2107560
  43.6650100  36.5732190  73.9936800  34.8036100  42.3517350  79.7917090
  35.3214770  41.5485610  79.7373980  34.3520120  42.2896490  80.6333920
  39.6905600  43.6183630  75.0644390  40.0321300  44.3625860  74.5687710
  38.8618310  43.9314750  75.4269220  45.9659280  38.7571780  73.8536080
  45.8823000  39.1886000  73.0032520  46.6853470  39.2170130  74.2862900
  46.9946530  45.6114040  76.5818210  46.3522690  44.9569660  76.8561930
  46.6077190  46.0169130  75.8058880  42.5733010  42.9399470  80.4289900
  42.9256830  42.3427600  79.7691270  41.6895340  42.6143700  80.5998150
  38.6596290  43.6997160  77.8360310  39.3467420  44.2466370  78.2167900
  37.8728710  44.2437890  77.8709920  30.7988690  39.3169980  73.3277390
  31.6683540  39.5994780  73.6113310  30.3079010  40.1305850  73.2126200
  37.9623500  40.7043190  77.4485670  38.4186280  41.5148440  77.6745860
  37.6111710  40.3866330  78.2804160  40.2656110  46.2149530  84.6777970
  40.9098330  46.4208910  85.3551390  40.6285550  45.4537930  84.2248820
  33.8635280  31.0480840  77.9208190  33.7349910  31.0398740  78.8693110
  33.0397300  31.3863930  77.5699200  41.5388190  44.2181880  83.3955420
  42.1810420  43.5175040  83.5087590  42.0637540  44.9980320  83.2152310
  45.3843910  44.5030500  73.1194560  45.1581490  43.7860940  73.7119200
  44.9940110  44.2542940  72.2816310  31.1659940  48.5297360  73.8939020
  31.5257580  49.1286700  73.2396290  31.0252280  49.0757250  74.6674050
  44.9660160  42.4202440  74.7808720  44.6781860  42.8815130  75.5686600
  45.7612330  41.9600210  75.0492940  37.1828560  45.9128560  74.7112690
  37.1738660  46.6458250  74.0957200  36.2626920  45.6660140  74.8039650
  32.7835200  41.1343450  75.4559450  32.1763150  41.8742350  75.4654750
  33.2584550  41.2242810  74.6297650  42.3567990  35.2994270  85.1316340
  42.7248810  34.4789480  85.4595910  41.4966190  35.3596160  85.5471990
  45.7230020  34.2551210  75.9403900  45.0943180  34.3596880  75.2262130
  45.2281940  34.4747990  76.7297780  40.1688160  45.9756800  73.3737880
  40.2700140  45.7720790  72.4439860  39.2689900  45.7215080  73.5785660
  37.6914050  36.5337160  77.3561780  36.9830200  37.0023500  77.7975390
  37.9758530  35.8759170  77.9906970  39.3169980  37.9533860  85.3554310
  39.8155230  38.4279680  86.0206160  39.4592930  37.0297380  85.5624340
  41.7229480  33.2587820  78.7957570  41.5997260  33.2773950  77.8467080
  42.6714040  33.3066760  78.9155970  38.8106270  48.4943120  78.0685550
  39.0647770  48.4564510  77.1464920  37.8618750  48.3676450  78.0613800
  35.8949070  34.8422240  74.7312490  36.7439600  35.2792390  74.6652680
  35.5280340  35.1542500  75.5584550  44.8158850  39.4135000  79.6444060
  43.8748990  39.4285230  79.8191750  45.1302920  38.6270960  80.0904360
  34.7940490  41.0954600  73.2048020  35.5603760  40.9835960  73.7673450
  34.8715180  40.3992570  72.5524790  33.4887250  38.5279670  73.8880910
  33.5690840  37.5807180  73.9998310  34.3807000  38.8586550  73.9941570
  46.8184430  46.5843850  81.3198320  46.9431850  47.4075020  81.7922130
  47.6849990  46.3734580  80.9722470  34.2901960  48.6775060  80.9915450
  35.0264440  48.1290520  81.2624020  34.6742880  49.5431070  80.8521440
  31.1747440  44.7448630  76.8656960  30.2487220  44.9869770  76.8562370
  31.6403870  45.5722890  76.7441710  37.4004270  47.8505370  72.8141020
  38.1932880  48.1394200  72.3622810  36.8808620  47.4197540  72.1353500
  46.4534440  47.0775500  74.2377760  46.1675950  46.6640640  73.4231940
  46.2553990  48.0063210  74.1178280  37.9181670  43.0708780  72.6783370
  37.8132310  42.4561130  73.4044750  37.7505890  42.5474670  71.8946380
  41.1584400  42.1328810  73.2825360  40.6094500  42.5798110  73.9268100
  41.7803660  41.6278060  73.8063030  36.8259520  41.0919730  75.1790660
  37.2475940  40.9259600  76.0222050  36.9510360  40.2819960  74.6845800
  39.3387160  40.1157340  72.4267760  39.8592820  39.4006360  72.0608910
  39.9855560  40.7543210  72.7268270  38.2420680  32.5951890  85.0986320
  37.7937980  32.6176150  84.2531870  37.6085880  32.1970910  85.6956620
  38.6480230  41.4906220  85.7198760  39.0668340  42.3338950  85.5475000
  37.7288860  41.6278260  85.4905540  35.7218420  37.1652960  72.1248820
  35.5207480  36.3020320  72.4862160  35.5510470  37.0786320  71.1870420
  43.2006730  31.9761190  74.6535700  43.4809020  31.1329090  75.0095120
  42.4272460  32.2084300  75.1674450  34.5201220  34.2653580  72.1126700
  34.8227120  34.2721010  71.2045850  35.2595810  33.9151440  72.6094360
  37.7386150  33.2088200  73.0982900  37.3908150  32.5312190  72.5185350
  37.9398920  32.7477710  73.9126290  39.9035190  48.1968950  74.7169500
  40.7985980  48.5353920  74.7388260  39.9352820  47.4748360  74.0893780
  33.5431350  43.5696000  72.9456500  33.9806220  44.1125670  73.6014080
  34.0279080  42.7442950  72.9552840  30.7577150  46.3585030  80.3976760
  31.0880160  45.4906090  80.1655400  31.1868150  46.5643550  81.2281720
  35.3539070  44.6894040  78.0578730  35.0534610  44.5659010  78.9582640
  35.2476560  43.8302630  77.6494460  31.2467360  47.2255620  83.1358390
  30.8098350  47.4056420  83.9682540  31.8145040  47.9830240  82.9940110
  48.1230990  44.4690440  72.7605410  47.2923950  44.5367090  73.2312640
  48.3002820  45.3594560  72.4572270  47.5787450  41.2137920  75.2639610
  48.3406360  41.7834570  75.3699300  47.5941820  40.6465120  76.0347920
  31.0791790  39.7375850  79.4947270  30.4240630  39.4687490  78.8506970
  31.9169740  39.6280330  79.0449250  48.5847420  42.0688020  80.1081540
  48.9556250  41.2855340  79.7017510  49.2249350  42.7577120  79.9298840
  45.5681180  43.4524600  85.5211860  44.7541020  43.8821760  85.7837650
  45.9755380  44.0643010  84.9080910  47.6306620  41.5072290  72.4212130
  47.9055460  42.4151170  72.2931350  47.4417360  41.4434820  73.3574120
  44.0282230  34.5317140  73.7165760  44.4467110  34.3448120  72.8762420
  43.7218290  33.6796190  74.0268690  47.5271960  39.4441280  77.4141560
  47.1515560  38.6769210  76.9822850  46.7975080  39.8263980  77.9016490
  32.1167720  40.1228420  84.0350610  32.4840760  40.0355820  84.9146630
  31.5478540  39.3594970  83.9357470  30.2929870  36.9474780  75.4372600
  29.3893950  37.2104980  75.2624260  30.7770490  37.2185950  74.6572560
  46.8022920  37.6698770  80.7148800  47.3260400  37.1761420  80.0838970
  47.3882340  37.8049130  81.4596370  46.9812640  37.7538640  84.2368350
  46.0315350  37.7202180  84.3513340  47.1625650  38.6638750  84.0018120
  32.8357080  36.0040320  73.3466980  33.5448780  35.5823540  72.8614260
  32.1197020  36.0715550  72.7150330  32.4831240  32.0579650  72.3869630
  33.2059370  32.5988590  72.7050850  32.7555760  31.7843070  71.5111170
  46.2922890  36.9272120  76.6541210  46.7882010  36.6942990  77.4390090
  46.0938960  36.0883960  76.2378850  32.1723430  31.3085840  82.2892250
  32.8199620  30.7583220  81.8487410  32.5925270  31.5628990  83.1108060
  47.7210050  35.5633070  79.1878890  47.6109330  35.4089110  80.1261160
  48.4817640  35.0354010  78.9454300  46.0675770  31.5027200  85.6461890
  46.7047990  32.1161340  86.0121080  46.2150660  31.5387860  84.7011120
  48.6100320  33.3940990  72.4285030  49.5349630  33.2622170  72.2203320
  48.5876110  33.4733810  73.3821480  48.6838810  34.1651650  75.0541740
  47.8890310  34.0996770  75.5834650  48.8882090  35.1002290  75.0427090
  45.6257230  48.2043200  79.0480130  46.2216300  47.8827770  78.3714550
  45.8835380  47.7315020  79.8393400  31.9255430  31.4641510  85.0317570
  31.5770250  31.9205330  85.7975750  31.5943130  30.5698640  85.1140000
  37.2325830  46.1920700  84.7980480  36.9917190  46.4595260  83.9111000
  38.1728470  46.3626430  84.8531340  48.4929990  48.2115080  85.5991120
  47.9988270  48.6083950  84.8818250  47.8843280  47.5864290  85.9928400
  42.8162850  30.8755590  84.5198570  41.9422690  31.2090700  84.3171500
  42.7073600  30.4028770  85.3450440  43.7234830  33.0826460  85.9040290
  43.3948190  32.2678220  85.5242020  44.6717130  33.0396270  85.7805980
  46.1769440  48.8538500  82.8777860  45.7172410  49.6054310  82.5035880
  45.5481900  48.1344970  82.8192660  33.0020060  44.9481740  85.2676580
  32.2754120  44.3287030  85.2002530  33.0629210  45.3422350  84.3974660
  36.6065160  47.1626740  82.0525990  37.1230180  46.5514100  81.5274250
  37.2562540  47.6655520  82.5437000  39.3460660  48.0535230  82.8794970
  39.6338470  47.7989530  82.0027980  39.8583880  47.5012590  83.4700540
  40.5637670  31.7925430  83.4591480  39.7809460  32.2670930  83.7388240
  40.2700600  30.8880260  83.3504660  45.1158740  32.4948530  81.5040570
  45.5566830  32.4393630  80.6562170  44.8466330  33.4106540  81.5750750
  46.9797310  32.1263770  79.5149390  46.9185710  31.1824990  79.3680410
  47.7589340  32.2343860  80.0602850  31.2850060  48.2656130  78.4773340
  31.1172100  47.6326810  79.1755230  30.4184570  48.4715530  78.1267530
  31.9078080  32.0972910  75.9805200  32.6657440  32.2101790  75.4069230
  31.4455250  32.9342110  75.9348630  38.4491890  34.2112180  78.9707510
  37.6366400  33.8369070  78.6303390  38.9533530  33.4557260  79.2728700
  42.9516870  30.8754630  80.2090580  43.5546240  31.4474840  80.6839100
  42.2109860  31.4394070  79.9864480  46.0951470  31.2776190  75.4830860
  46.2902100  32.1759640  75.7498290  45.3081340  31.0463270  75.9763810
  32.8912760  46.9589360  75.9223480  32.3660380  47.3397390  75.2185440
  32.8157340  47.5840130  76.6433190  34.2803230  32.6236960  74.5207170
  34.8095990  31.8366760  74.3915120  34.9131550  33.3028150  74.7542700
  36.4741070  32.3612100  77.5752560  35.8443810  31.6599410  77.7422690
  35.9346210  33.1216230  77.3585720  47.6478080  48.5176900  77.2437420
  47.8230270  47.8314640  76.5998340  46.9499650  49.0423950  76.8514090
  35.4905730  48.9071740  74.7972730  36.2224550  48.6231020  74.2496620
  35.7499400  48.6685020  75.6872110  34.6520520  45.0236470  74.8019060
  34.0229400  45.4921570  75.3504890  34.7668350  44.1785690  75.2365250
  48.7826110  35.8465910  66.5640590  48.0778280  36.2347620  66.0455700
  49.0484030  36.5416200  67.1661520  36.2154130  41.9554460  65.3048160
  35.8823510  42.5823380  65.9469230  36.3920810  42.4816340  64.5249830
  35.4273230  43.9235260  67.1197340  36.0447230  44.5986340  66.8381790
  34.5666350  44.3323240  67.0284840  44.8799210  47.3664510  66.8031860
  44.4029770  48.1736700  66.6104470  44.1961000  46.7142840  66.9558070
  35.8832030  43.5314330  69.7916560  34.9860560  43.7554300  70.0389960
  35.9084900  43.6549270  68.8427960  34.7103250  40.4027650  68.3673930
  34.5711020  41.2750450  68.7361330  33.8284610  40.0600460  68.2221870
  36.5083600  46.3449350  70.5759080  36.4799030  46.7492300  69.7087510
  36.3448570  45.4159710  70.4130680  48.4598420  47.1276450  71.8723250
  48.9358140  47.6059340  72.5512330  49.0805580  47.0593940  71.1468750
  47.8631670  44.3189300  69.0323260  47.9894730  44.0801180  68.1140440
  47.9053050  43.4873840  69.5045340  41.7248410  48.0217300  67.6018070
  42.2393080  47.9325310  68.4040500  40.8817490  48.3677000  67.8945980
  47.7155680  36.3721760  69.9973000  47.0999950  36.8801430  69.4688460
  47.3952100  35.4720090  69.9398940  30.7181420  43.2139370  66.8239300
  30.8812460  42.7444730  66.0058670  31.1833870  42.7062930  67.4888140
  41.8724220  37.9324350  70.6930640  42.1977630  37.0988100  70.3532870
  42.6604550  38.4552870  70.8408970  45.5928840  31.5677220  69.5635150
  45.9174610  30.8366880  70.0893130  45.6285350  31.2490860  68.6616140
  32.2920400  42.5890800  68.9835110  31.9075190  41.9484470  69.5818070
  32.6032590  43.2926920  69.5529840  40.9005480  41.7511390  69.0590180
  40.8342790  40.8307060  68.8047770  40.2710620  41.8486830  69.7734820
  32.2880640  39.3178720  67.9299300  31.9295580  39.9832570  68.5172640
  31.9935200  38.4862270  68.3011920  35.4893760  39.7762960  70.8138850
  35.1893900  39.9220140  69.9166670  36.2605000  39.2168250  70.7212240
  40.8322210  44.5731960  68.8093980  40.8466750  43.6412920  68.5912890
  40.1247310  44.6591720  69.4483750  47.0433420  41.2139300  68.1562560
  46.3181610  41.8068080  67.9591950  47.5708880  41.2062840  67.3575930
  40.2656110  46.2149530  65.9034480  40.9098330  46.4208910  66.5807900
  40.6285550  45.4537930  65.4505330  43.3125810  45.0176780  67.8247990
  43.6482050  45.6043470  68.5025910  42.3926150  44.8869490  68.0545780
  31.1501800  46.7952220  69.5937930  31.2592920  45.8546960  69.4533320
  30.4982360  47.0606970  68.9451660  39.1414390  45.0668110  70.9936050
  38.8211260  44.3477350  71.5381740  38.4672750  45.7423180  71.0672110
  33.2960240  47.8621130  71.4057540  34.0972970  48.1833180  71.8192940
  32.7812060  47.5016710  72.1277450  42.1324870  43.9701000  71.3532950
  41.5263030  43.9932600  70.6128700  41.8278980  43.2384040  71.8900200
  43.5625240  47.6981290  69.9642360  44.5146990  47.6139310  69.9142600
  43.4153460  48.3623000  70.6376150  31.0158050  40.3494590  70.3493590
  31.5197070  39.7701870  70.9209820  30.2765470  40.6334820  70.8869960
  38.0695990  41.7565580  69.8829110  37.3041660  42.3250580  69.7983780
  38.2511950  41.4641790  68.9897340  45.2119340  43.4870910  70.4404130
  45.9528810  43.8246670  69.9371590  44.4492020  43.6562970  69.8873900
  33.0481130  38.4924180  71.2443660  33.0886470  38.1938050  72.1528890
  33.9026630  38.8931790  71.0851180  43.8865000  41.5385740  68.9759340
  44.3006020  41.6930820  69.8249760  42.9516000  41.6640960  69.1385120
  44.3587170  38.8781900  70.9798490  44.9407940  38.1234220  70.8918970
  44.5348940  39.4089340  70.2029970  38.6480230  41.4906220  66.9455270
  39.0668340  42.3338950  66.7731510  37.7288860  41.6278260  66.7162050
  36.4987650  47.7959230  68.0613000  35.9608740  48.5205290  67.7421700
  36.7521610  47.3189570  67.2710340  39.3549860  49.0310440  68.3199650
  39.2808560  49.9345580  68.6272020  38.4528700  48.7122340  68.2921720
  31.2467360  47.2255620  64.3614900  30.8098350  47.4056420  65.1939050
  31.8145040  47.9830240  64.2196620  46.8829540  46.7272620  68.6492210
  46.2831530  46.7865180  67.9056130  47.0123440  45.7877600  68.7789060
  45.5681180  43.4524600  66.7468370  44.7541020  43.8821760  67.0094160
  45.9755380  44.0643010  66.1337420  46.0675770  31.5027200  66.8718400
  46.7047990  32.1161340  67.2377590  46.2150660  31.5387860  65.9267630
  33.5319800  44.6361110  70.4227270  33.4889430  44.2654020  71.3041730
  33.6630810  45.5738680  70.5629090  37.2325830  46.1920700  66.0236990
  36.9917190  46.4595260  65.1367510  38.1728470  46.3626430  66.0787850
  42.0754810  32.3123450  69.4185790  42.6895220  32.6302740  68.7566870
  42.6204370  31.8272040  70.0381650  48.4929990  48.2115080  66.8247630
  47.9988270  48.6083950  66.1074760  47.8843280  47.5864290  67.2184910
  33.3707830  47.5823360  67.5425050  32.7768150  47.4508060  68.2815090
  33.3631670  46.7461500  67.0767150  46.1769440  48.8538500  64.1034370
  45.7172410  49.6054310  63.7292390  45.5481900  48.1344970  64.0449170
  39.3460660  48.0535230  64.1051480  39.6338470  47.7989530  63.2284490
  39.8583880  47.5012590  64.6957050  46.9797310  32.1263770  60.7405900
  46.9185710  31.1824990  60.5936920  47.7589340  32.2343860  61.2859360
  39.4133020  48.9751330  71.4719680  40.3400330  48.7395600  71.5155640
  39.3983450  49.8023330  70.9905710  43.2012090  31.0549660  71.8142030
  43.0877540  31.3744270  72.7093550  44.0181830  31.4562170  71.5179310
  45.9810580  48.2021190  71.2960720  46.7735900  47.7070420  71.0886680
  46.2743730  48.8811330  71.9036330  44.4926560  33.8299160  41.2253470
  45.3136180  33.3395730  41.2678950  44.5260640  34.4196820  41.9785310
  46.5054390  31.6350260  35.2455370  46.1927050  31.7277090  36.1454440
  47.2666860  32.2131290  35.1952800  45.9659280  38.7571780  36.3049100
  45.8823000  39.1886000  35.4545540  46.6853470  39.2170130  36.7375920
  45.7230020  34.2551210  38.3916920  45.0943180  34.3596880  37.6775150
  45.2281940  34.4747990  39.1810800  39.3549860  49.0310440  49.5456160
  39.2808560  49.9345580  49.8528530  38.4528700  48.7122340  49.5178230
  46.2922890  36.9272120  39.1054230  46.7882010  36.6942990  39.8903110
  46.0938960  36.0883960  38.6891870  47.7210050  35.5633070  41.6391910
  47.6109330  35.4089110  42.5774180  48.4817640  35.0354010  41.3967320
  48.6100320  33.3940990  34.8798050  49.5349630  33.2622170  34.6716340
  48.5876110  33.4733810  35.8334500  48.6838810  34.1651650  37.5054760
  47.8890310  34.0996770  38.0347670  48.8882090  35.1002290  37.4940110
  31.9078080  32.0972910  38.4318220  32.6657440  32.2101790  37.8582250
  31.4455250  32.9342110  38.3861650  46.0951470  31.2776190  37.9343880
  46.2902100  32.1759640  38.2011310  45.3081340  31.0463270  38.4276830
  42.1070240  39.0742130  23.4033280  42.0264290  38.1596740  23.1324990
  41.6934660  39.5709200  22.6972990  32.6646060  36.1242850  19.9460700
  31.7762760  36.4658820  19.8440580  32.9487250  35.9243170  19.0541530
  30.6279070  38.7248500  25.8300400  31.1995180  37.9570700  25.8304040
  30.6280610  39.0237260  24.9207010  31.8703940  34.1332860  27.6169330
  31.6906780  33.2358610  27.8972090  31.4684020  34.6804730  28.2916280
  40.7102440  36.3348720  25.5181640  41.0867260  35.4620600  25.4055310
  40.6121950  36.6707420  24.6272080  34.8407450  34.7074350  20.9799080
  34.9474200  35.6078080  21.2867840  33.9299810  34.6592320  20.6893730
  44.4926560  33.8299160  22.4509980  45.3136180  33.3395730  22.4935460
  44.5260640  34.4196820  23.2041820  32.4890610  36.6293360  26.2251670
  33.1700720  36.8931730  26.8439070  32.1738660  35.7894230  26.5589680
  48.7826110  35.8465910  29.0153610  48.0778280  36.2347620  28.4968720
  49.0484030  36.5416200  29.6174540  34.9651280  32.3159280  29.5787680
  34.9669720  32.8331670  28.7733580  34.1355590  31.8389460  29.5557610
  44.7288040  35.7699540  25.2237520  44.0243610  36.0584430  25.8040630
  45.0900200  36.5799650  24.8637080  34.6466610  34.0269240  27.5858130
  34.9883420  34.8711290  27.2912000  33.7082420  34.1752980  27.7023470
  30.7205570  43.1135120  18.4517210  30.3433550  43.6022220  17.7202110
  30.9778640  43.7860400  19.0823740  47.7974960  35.2154330  25.6146730
  46.8499870  35.2493310  25.7462160  48.1224950  36.0293280  25.9996090
  38.3294500  31.5151510  23.9102720  38.6369480  30.9598400  23.1938220
  37.3995200  31.6495970  23.7275710  40.7175260  39.5800340  20.6462840
  39.7904540  39.5137720  20.8751310  40.8700080  40.5180470  20.5318080
  40.7044340  35.8517340  17.6430000  39.7648010  36.0131300  17.7282460
  41.0227600  36.5703020  17.0965990  44.1899110  37.3205180  28.5663900
  43.7770290  38.1458890  28.8203890  43.4575060  36.7350220  28.3740260
  42.9237250  40.3807450  18.1570840  43.3630530  39.5429880  18.0108660
  43.6365670  41.0136850  18.2434980  46.5054390  31.6350260  16.4711880
  46.1927050  31.7277090  17.3710950  47.2666860  32.2131290  16.4209310
  33.0236530  39.0010060  20.9289220  32.9034130  39.7272150  20.3170490
  32.7137420  38.2312970  20.4517130  30.6621900  42.1725200  26.7357860
  30.7402320  42.3073970  25.7913580  31.2763580  41.4641090  26.9285980
  31.9069530  43.8725390  23.1464040  31.4997610  44.0139980  22.2917640
  32.7982540  43.5885550  22.9435250  36.1791190  48.0871170  21.2586710
  36.0033670  47.1706710  21.0454510  35.3246930  48.4458460  21.4984510
  47.7155680  36.3721760  32.4486020  47.0999950  36.8801430  31.9201480
  47.3952100  35.4720090  32.3911960  35.4900190  32.3445130  24.3112890
  35.0468340  33.1254670  23.9797410  36.0485180  32.6675020  25.0183830
  44.7774510  36.4322600  31.0444870  43.9268100  36.1328350  31.3653940
  44.6176300  36.6764610  30.1328690  38.6059010  31.9655830  19.1918720
  37.9813190  31.9615700  19.9172030  38.5189130  31.0986790  18.7954690
  37.5276090  32.8892460  26.1702490  37.8248420  33.7955290  26.0894510
  38.0761650  32.4011240  25.5562060  35.2814410  37.4678700  22.0394140
  35.0555330  37.2515870  22.9440760  34.5006940  37.9007160  21.6940110
  42.5112170  37.4742070  20.6384790  41.9121060  38.1977870  20.4548410
  43.0591780  37.4118850  19.8561240  41.1177040  36.1105610  22.6688070
  41.5106610  36.4277810  21.8556760  41.4793890  35.2317490  22.7832590
  30.1541210  32.7006410  24.8918270  29.8654260  33.2709270  25.6043250
  30.8986970  32.2210860  25.2549500  30.3411440  36.6426530  16.1020990
  30.2586110  37.5857290  16.2435980  29.9894500  36.5001440  15.2233340
  38.1409570  35.3765560  25.1691340  38.1445630  34.9355510  24.3195880
  39.0360690  35.6982890  25.2763160  33.9911950  35.2592050  24.1285550
  33.6512000  35.7367280  24.8852600  33.2289270  34.8057170  23.7686650
  38.2029720  36.3777640  18.1598100  38.3242540  36.3364120  19.1083920
  37.8178230  37.2401790  18.0044830  42.1658090  34.1545040  26.1761790
  42.1830830  34.6053690  27.0203640  41.9173670  33.2550680  26.3895230
  37.2151220  38.6878780  17.5581400  36.6468120  38.2397030  16.9317310
  37.9240220  39.0471560  17.0246550  45.5928840  31.5677220  32.0148170
  45.9174610  30.8366880  32.5406150  45.6285350  31.2490860  31.1129160
  31.3058030  34.1811030  23.0450220  31.0204950  33.8166700  23.8828840
  31.2436890  33.4491490  22.4313360  34.7598700  42.6836970  19.8307810
  33.9860960  42.1434590  19.6706530  35.4893330  42.1643580  19.4925570
  40.9796620  33.0740290  19.7663590  40.1661230  32.5753460  19.6908900
  40.7858570  33.9138540  19.3499940  43.6945010  37.4459940  18.0625750
  44.5824630  37.7577170  17.8877090  43.6650100  36.5732190  17.6706330
  34.8036100  42.3517350  23.4686620  35.3214770  41.5485610  23.4143510
  34.3520120  42.2896490  24.3103450  39.6905600  43.6183630  18.7413920
  40.0321300  44.3625860  18.2457240  38.8618310  43.9314750  19.1038750
  45.9659280  38.7571780  17.5305610  45.8823000  39.1886000  16.6802050
  46.6853470  39.2170130  17.9632430  38.6596290  43.6997160  21.5129840
  39.3467420  44.2466370  21.8937430  37.8728710  44.2437890  21.5479450
  30.7988690  39.3169980  17.0046920  31.6683540  39.5994780  17.2882840
  30.3079010  40.1305850  16.8895730  37.9623500  40.7043190  21.1255200
  38.4186280  41.5148440  21.3515390  37.6111710  40.3866330  21.9573690
  33.8635280  31.0480840  21.5977720  33.7349910  31.0398740  22.5462640
  33.0397300  31.3863930  21.2468730  45.3843910  44.5030500  16.7964090
  45.1581490  43.7860940  17.3888730  44.9940110  44.2542940  15.9585840
  31.1659940  48.5297360  17.5708550  31.5257580  49.1286700  16.9165820
  31.0252280  49.0757250  18.3443580  30.8629210  32.8071960  31.0584420
  30.1487730  33.0068880  31.6637030  31.2824250  32.0311530  31.4299220
  37.1828560  45.9128560  18.3882220  37.1738660  46.6458250  17.7726730
  36.2626920  45.6660140  18.4809180  32.7835200  41.1343450  19.1328980
  32.1763150  41.8742350  19.1424280  33.2584550  41.2242810  18.3067180
  42.3567990  35.2994270  28.8085870  42.7248810  34.4789480  29.1365440
  41.4966190  35.3596160  29.2241520  45.7230020  34.2551210  19.6173430
  45.0943180  34.3596880  18.9031660  45.2281940  34.4747990  20.4067310
  40.1688160  45.9756800  17.0507410  40.2700140  45.7720790  16.1209390
  39.2689900  45.7215080  17.2555190  37.6914050  36.5337160  21.0331310
  36.9830200  37.0023500  21.4744920  37.9758530  35.8759170  21.6676500
  41.7229480  33.2587820  22.4727100  41.5997260  33.2773950  21.5236610
  42.6714040  33.3066760  22.5925500  35.8949070  34.8422240  18.4082020
  36.7439600  35.2792390  18.3422210  35.5280340  35.1542500  19.2354080
  46.5236840  34.1701820  29.8752230  46.0210440  34.9107220  30.2146040
  47.3393500  34.5585820  29.5589020  34.7940490  41.0954600  16.8817550
  35.5603760  40.9835960  17.4442980  34.8715180  40.3992570  16.2294320
  33.4887250  38.5279670  17.5650440  33.5690840  37.5807180  17.6767840
  34.3807000  38.8586550  17.6711100  31.1747440  44.7448630  20.5426490
  30.2487220  44.9869770  20.5331900  31.6403870  45.5722890  20.4211240
  37.4004270  47.8505370  16.4910550  38.1932880  48.1394200  16.0392340
  36.8808620  47.4197540  15.8123030  46.4534440  47.0775500  17.9147290
  46.1675950  46.6640640  17.1001470  46.2553990  48.0063210  17.7947810
  37.9181670  43.0708780  16.3552900  37.8132310  42.4561130  17.0814280
  37.7505890  42.5474670  15.5715910  41.1584400  42.1328810  16.9594890
  40.6094500  42.5798110  17.6037630  41.7803660  41.6278060  17.4832560
  36.8259520  41.0919730  18.8560190  37.2475940  40.9259600  19.6991580
  36.9510360  40.2819960  18.3615330  39.3387160  40.1157340  16.1037290
  39.8592820  39.4006360  15.7378440  39.9855560  40.7543210  16.4037800
  38.2420680  32.5951890  28.7755850  37.7937980  32.6176150  27.9301400
  37.6085880  32.1970910  29.3726150  35.7218420  37.1652960  15.8018350
  35.5207480  36.3020320  16.1631690  35.5510470  37.0786320  14.8639950
  43.2006730  31.9761190  18.3305230  43.4809020  31.1329090  18.6864650
  42.4272460  32.2084300  18.8443980  34.5201220  34.2653580  15.7896230
  34.8227120  34.2721010  14.8815380  35.2595810  33.9151440  16.2863890
  37.7386150  33.2088200  16.7752430  37.3908150  32.5312190  16.1954880
  37.9398920  32.7477710  17.5895820  39.9035190  48.1968950  18.3939030
  40.7985980  48.5353920  18.4157790  39.9352820  47.4748360  17.7663310
  33.5431350  43.5696000  16.6226030  33.9806220  44.1125670  17.2783610
  34.0279080  42.7442950  16.6322370  35.3539070  44.6894040  21.7348260
  35.0534610  44.5659010  22.6352170  35.2476560  43.8302630  21.3263990
  48.1230990  44.4690440  16.4374940  47.2923950  44.5367090  16.9082170
  48.3002820  45.3594560  16.1341800  47.5787450  41.2137920  18.9409140
  48.3406360  41.7834570  19.0468830  47.5941820  40.6465120  19.7117450
  31.0791790  39.7375850  23.1716800  30.4240630  39.4687490  22.5276500
  31.9169740  39.6280330  22.7218780  47.6306620  41.5072290  16.0981660
  47.9055460  42.4151170  15.9700880  47.4417360  41.4434820  17.0343650
  44.0282230  34.5317140  17.3935290  44.4467110  34.3448120  16.5531950
  43.7218290  33.6796190  17.7038220  47.5271960  39.4441280  21.0911090
  47.1515560  38.6769210  20.6592380  46.7975080  39.8263980  21.5786020
  46.9171580  38.5912800  30.7250610  46.6857670  38.3625550  29.8248560
  47.1776130  39.5112350  30.6795500  45.3559650  33.8169230  33.5030310
  46.2329830  33.8252630  33.8864310  45.3680490  33.0800070  32.8922660
  30.2929870  36.9474780  19.1142130  29.3893950  37.2104980  18.9393790
  30.7770490  37.2185950  18.3342090  46.8022920  37.6698770  24.3918330
  47.3260400  37.1761420  23.7608500  47.3882340  37.8049130  25.1365900
  32.8357080  36.0040320  17.0236510  33.5448780  35.5823540  16.5383790
  32.1197020  36.0715550  16.3919860  32.4831240  32.0579650  16.0639160
  33.2059370  32.5988590  16.3820380  32.7555760  31.7843070  15.1880700
  46.2922890  36.9272120  20.3310740  46.7882010  36.6942990  21.1159620
  46.0938960  36.0883960  19.9148380  32.1723430  31.3085840  25.9661780
  32.8199620  30.7583220  25.5256940  32.5925270  31.5628990  26.7877590
  47.7210050  35.5633070  22.8648420  47.6109330  35.4089110  23.8030690
  48.4817640  35.0354010  22.6223830  46.0675770  31.5027200  29.3231420
  46.7047990  32.1161340  29.6890610  46.2150660  31.5387860  28.3780650
  48.6100320  33.3940990  16.1054560  49.5349630  33.2622170  15.8972850
  48.5876110  33.4733810  17.0591010  48.6838810  34.1651650  18.7311270
  47.8890310  34.0996770  19.2604180  48.8882090  35.1002290  18.7196620
  31.9255430  31.4641510  28.7087100  31.5770250  31.9205330  29.4745280
  31.5943130  30.5698640  28.7909530  39.4380250  32.6553390  32.2306520
  39.3769140  33.2475220  32.9801930  40.3780630  32.5479350  32.0856780
  42.0754810  32.3123450  31.8698810  42.6895220  32.6302740  31.2079890
  42.6204370  31.8272040  32.4894670  32.5976070  30.9917710  31.9837870
  33.1459060  30.8105760  31.2203980  32.6631380  30.2011820  32.5194180
  42.8162850  30.8755590  28.1968100  41.9422690  31.2090700  27.9941030
  42.7073600  30.4028770  29.0219970  43.7234830  33.0826460  29.5809820
  43.3948190  32.2678220  29.2011550  44.6717130  33.0396270  29.4575510
  40.5637670  31.7925430  27.1361010  39.7809460  32.2670930  27.4157770
  40.2700600  30.8880260  27.0274190  45.1158740  32.4948530  25.1810100
  45.5566830  32.4393630  24.3331700  44.8466330  33.4106540  25.2520280
  46.9797310  32.1263770  23.1918920  46.9185710  31.1824990  23.0449940
  47.7589340  32.2343860  23.7372380  31.2850060  48.2656130  22.1542870
  31.1172100  47.6326810  22.8524760  30.4184570  48.4715530  21.8037060
  31.9078080  32.0972910  19.6574730  32.6657440  32.2101790  19.0838760
  31.4455250  32.9342110  19.6118160  38.4491890  34.2112180  22.6477040
  37.6366400  33.8369070  22.3072920  38.9533530  33.4557260  22.9498230
  42.9516870  30.8754630  23.8860110  43.5546240  31.4474840  24.3608630
  42.2109860  31.4394070  23.6634010  46.0951470  31.2776190  19.1600390
  46.2902100  32.1759640  19.4267820  45.3081340  31.0463270  19.6533340
  32.8912760  46.9589360  19.5993010  32.3660380  47.3397390  18.8954970
  32.8157340  47.5840130  20.3202720  34.2803230  32.6236960  18.1976700
  34.8095990  31.8366760  18.0684650  34.9131550  33.3028150  18.4312230
  36.4741070  32.3612100  21.2522090  35.8443810  31.6599410  21.4192220
  35.9346210  33.1216230  21.0355250  35.4905730  48.9071740  18.4742260
  36.2224550  48.6231020  17.9266150  35.7499400  48.6685020  19.3641640
  34.6520520  45.0236470  18.4788590  34.0229400  45.4921570  19.0274420
  34.7668350  44.1785690  18.9134780  43.2012090  31.0549660  34.2655050
  43.0877540  31.3744270  35.1606570  44.0181830  31.4562170  33.9692330
  42.1070240  39.0742130   4.6289790  42.0264290  38.1596740   4.3581500
  41.6934660  39.5709200   3.9229500  40.2388280  40.8521150   6.5099060
  39.4630380  40.3721590   6.7997630  40.8901210  40.1726800   6.3355220
  34.2554110  41.1640960   7.3874820  33.4238990  40.9089670   7.7871330
  34.8635090  41.2351730   8.1232740  44.2595710  45.2581340   5.2898190
  43.7977240  44.4868580   5.6185360  45.0721260  45.2847410   5.7950640
  34.2355370  45.1981050   7.5832840  34.5383410  44.3078790   7.4043060
  34.9798960  45.7551270   7.3555090  30.6279070  38.7248500   7.0556910
  31.1995180  37.9570700   7.0560550  30.6280610  39.0237260   6.1463520
  40.4859020  47.5439350   4.9102180  39.8670460  47.9996850   4.3396620
  41.3410800  47.6990810   4.5091880  39.6797270  43.5278340   6.5169220
  39.6105550  42.5868280   6.3558350  40.4417130  43.6179750   7.0891790
  31.8703940  34.1332860   8.8425840  31.6906780  33.2358610   9.1228600
  31.4684020  34.6804730   9.5172790  40.7102440  36.3348720   6.7438150
  41.0867260  35.4620600   6.6311820  40.6121950  36.6707420   5.8528590
  34.8407450  34.7074350   2.2055590  34.9474200  35.6078080   2.5124350
  33.9299810  34.6592320   1.9150240  44.4926560  33.8299160   3.6766490
  45.3136180  33.3395730   3.7191970  44.5260640  34.4196820   4.4298330
  32.4890610  36.6293360   7.4508180  33.1700720  36.8931730   8.0695580
  32.1738660  35.7894230   7.7846190  36.6815180  37.6760720   6.5380770
  37.1893400  38.1741690   7.1785790  37.2128420  36.8995920   6.3620130
  48.7826110  35.8465910  10.2410120  48.0778280  36.2347620   9.7225230
  49.0484030  36.5416200  10.8431050  34.9651280  32.3159280  10.8044190
  34.9669720  32.8331670   9.9990090  34.1355590  31.8389460  10.7814120
  41.3522370  42.4278590   2.3034090  40.7339640  42.8928040   1.7396810
  41.8645620  43.1206070   2.7203600  36.2154130  41.9554460   8.9817690
  35.8823510  42.5823380   9.6238760  36.3920810  42.4816340   8.2019360
  44.7288040  35.7699540   6.4494030  44.0243610  36.0584430   7.0297140
  45.0900200  36.5799650   6.0893590  34.6466610  34.0269240   8.8114640
  34.9883420  34.8711290   8.5168510  33.7082420  34.1752980   8.9279980
  35.4273230  43.9235260  10.7966870  36.0447230  44.5986340  10.5151320
  34.5666350  44.3323240  10.7054370  46.3450820  45.3874670   8.7121510
  45.6614340  46.0573780   8.7038180  46.8845110  45.5855320   7.9466370
  47.7974960  35.2154330   6.8403240  46.8499870  35.2493310   6.9718670
  48.1224950  36.0293280   7.2252600  38.3294500  31.5151510   5.1359230
  38.6369480  30.9598400   4.4194730  37.3995200  31.6495970   4.9532220
  43.8809560  47.2318800   7.4266690  43.8936720  46.8281090   6.5588950
  43.3284780  48.0066090   7.3228120  45.1754980  43.9535020   2.5156860
  45.0651310  43.0109350   2.6406280  45.1723230  44.3150660   3.4019620
  43.2795000  42.1348640   8.7549300  43.6963790  41.9208750   7.9202760
  44.0034820  42.3921430   9.3257920  40.7175260  39.5800340   1.8719350
  39.7904540  39.5137720   2.1007820  40.8700080  40.5180470   1.7574590
  47.2257100  40.5335860   8.8465540  46.3975730  40.6028950   8.3715670
  47.8207580  41.1190170   8.3781370  44.7472550  41.1420640   2.3754600
  44.1284970  40.8040190   1.7280900  44.7297000  40.4980400   3.0833790
  44.1899110  37.3205180   9.7920410  43.7770290  38.1458890  10.0460400
  43.4575060  36.7350220   9.5996770  36.3231900  40.1065080   4.6539080
  35.9188900  39.3942330   4.1584980  36.4095020  39.7618320   5.5427120
  36.7913600  43.7932640   6.8178290  36.4941890  43.1878110   6.1386070
  37.7413420  43.8309950   6.7067650  35.0360520  36.8808290   8.4338120
  35.5875110  36.9903630   7.6591370  35.5504030  37.2545890   9.1493350
  44.8799210  47.3664510  10.4801390  44.4029770  48.1736700  10.2874000
  44.1961000  46.7142840  10.6327600  35.8832030  43.5314330  13.4686090
  34.9860560  43.7554300  13.7159490  35.9084900  43.6549270  12.5197490
  34.7103250  40.4027650  12.0443460  34.5711020  41.2750450  12.4130860
  33.8284610  40.0600460  11.8991400  41.0332630  45.3203520   3.3508590
  41.4728540  46.0627850   2.9363980  40.9719520  45.5630090   4.2747550
  36.5083600  46.3449350  14.2528610  36.4799030  46.7492300  13.3857040
  36.3448570  45.4159710  14.0900210  33.0236530  39.0010060   2.1545730
  32.9034130  39.7272150   1.5427000  32.7137420  38.2312970   1.6773640
  48.4598420  47.1276450  15.5492780  48.9358140  47.6059340  16.2281860
  49.0805580  47.0593940  14.8238280  30.6621900  42.1725200   7.9614370
  30.7402320  42.3073970   7.0170090  31.2763580  41.4641090   8.1542490
  31.9069530  43.8725390   4.3720550  31.4997610  44.0139980   3.5174150
  32.7982540  43.5885550   4.1691760  47.8631670  44.3189300  12.7092790
  47.9894730  44.0801180  11.7909970  47.9053050  43.4873840  13.1814870
  41.7248410  48.0217300  11.2787600  42.2393080  47.9325310  12.0810030
  40.8817490  48.3677000  11.5715510  36.1791190  48.0871170   2.4843220
  36.0033670  47.1706710   2.2711020  35.3246930  48.4458460   2.7241020
  42.9678870  47.4422910   3.3418090  43.4235820  46.6612290   3.6556710
  43.3071390  48.1529730   3.8859270  47.7155680  36.3721760  13.6742530
  47.0999950  36.8801430  13.1457990  47.3952100  35.4720090  13.6168470
  30.7181420  43.2139370  10.5008830  30.8812460  42.7444730   9.6828200
  31.1833870  42.7062930  11.1657670  35.4900190  32.3445130   5.5369400
  35.0468340  33.1254670   5.2053920  36.0485180  32.6675020   6.2440340
  39.7770000  35.2113650  11.1404720  39.3149370  35.4196670  11.9524660
  39.3748110  34.3973000  10.8375390  44.7774510  36.4322600  12.2701380
  43.9268100  36.1328350  12.5910450  44.6176300  36.6764610  11.3585200
  41.8724220  37.9324350  14.3700170  42.1977630  37.0988100  14.0302400
  42.6604550  38.4552870  14.5178500  37.5276090  32.8892460   7.3959000
  37.8248420  33.7955290   7.3151020  38.0761650  32.4011240   6.7818570
  35.2814410  37.4678700   3.2650650  35.0555330  37.2515870   4.1697270
  34.5006940  37.9007160   2.9196620  37.7213620  38.3664280  13.9310920
  37.6257220  37.4259010  13.7811320  38.5645600  38.5879350  13.5358990
  41.1177040  36.1105610   3.8944580  41.5106610  36.4277810   3.0813270
  41.4793890  35.2317490   4.0089100  32.8524160  34.7777950  12.0844700
  32.4587550  35.6253160  12.2917480  32.1642560  34.1404320  12.2753340
  39.4269210  34.8612920  15.1541440  38.7367530  34.6685120  15.7887530
  40.1701510  35.1447560  15.6865740  30.1541210  32.7006410   6.1174780
  29.8654260  33.2709270   6.8299760  30.8986970  32.2210860   6.4806010
  41.7032180  38.7011360   7.9895360  40.9713300  39.2098170   8.3385460
  41.3056520  37.8841340   7.6884140  38.1409570  35.3765560   6.3947850
  38.1445630  34.9355510   5.5452390  39.0360690  35.6982890   6.5019670
  33.9911950  35.2592050   5.3542060  33.6512000  35.7367280   6.1109110
  33.2289270  34.8057170   4.9943160  42.1658090  34.1545040   7.4018300
  42.1830830  34.6053690   8.2460150  41.9173670  33.2550680   7.6151740
  45.5928840  31.5677220  13.2404680  45.9174610  30.8366880  13.7662660
  45.6285350  31.2490860  12.3385670  32.2920400  42.5890800  12.6604640
  31.9075190  41.9484470  13.2587600  32.6032590  43.2926920  13.2299370
  38.4417540  39.4367340   8.1413260  38.8087670  38.9625910   8.8874600
  38.2522600  40.3108910   8.4821600  31.3058030  34.1811030   4.2706730
  31.0204950  33.8166700   5.1085350  31.2436890  33.4491490   3.6569870
  36.2316910  38.4775980  10.4597470  35.9273980  39.3567960  10.6847830
  37.1863370  38.5375770  10.4954910  45.5186680  41.6802330   6.8490710
  46.2385800  42.1757620   6.4586820  45.3168500  41.0020220   6.2044580
  40.9005480  41.7511390  12.7359710  40.8342790  40.8307060  12.4817300
  40.2710620  41.8486830  13.4504350  34.8036100  42.3517350   4.6943130
  35.3214770  41.5485610   4.6400020  34.3520120  42.2896490   5.5359960
  32.2880640  39.3178720  11.6068830  31.9295580  39.9832570  12.1942170
  31.9935200  38.4862270  11.9781450  35.4893760  39.7762960  14.4908380
  35.1893900  39.9220140  13.5936200  36.2605000  39.2168250  14.3981770
  40.8322210  44.5731960  12.4863510  40.8466750  43.6412920  12.2682420
  40.1247310  44.6591720  13.1253280  47.0433420  41.2139300  11.8332090
  46.3181610  41.8068080  11.6361480  47.5708880  41.2062840  11.0345460
  42.5733010  42.9399470   5.3315940  42.9256830  42.3427600   4.6717310
  41.6895340  42.6143700   5.5024190  38.6596290  43.6997160   2.7386350
  39.3467420  44.2466370   3.1193940  37.8728710  44.2437890   2.7735960
  37.9623500  40.7043190   2.3511710  38.4186280  41.5148440   2.5771900
  37.6111710  40.3866330   3.1830200  40.2656110  46.2149530   9.5804010
  40.9098330  46.4208910  10.2577430  40.6285550  45.4537930   9.1274860
  33.8635280  31.0480840   2.8234230  33.7349910  31.0398740   3.7719150
  33.0397300  31.3863930   2.4725240  41.5388190  44.2181880   8.2981460
  42.1810420  43.5175040   8.4113630  42.0637540  44.9980320   8.1178350
  43.3125810  45.0176780  11.5017520  43.6482050  45.6043470  12.1795440
  42.3926150  44.8869490  11.7315310  30.8629210  32.8071960  12.2840930
  30.1487730  33.0068880  12.8893540  31.2824250  32.0311530  12.6555730
  31.1501800  46.7952220  13.2707460  31.2592920  45.8546960  13.1302850
  30.4982360  47.0606970  12.6221190  39.1414390  45.0668110  14.6705580
  38.8211260  44.3477350  15.2151270  38.4672750  45.7423180  14.7441640
  42.3567990  35.2994270  10.0342380  42.7248810  34.4789480  10.3621950
  41.4966190  35.3596160  10.4498030  37.6914050  36.5337160   2.2587820
  36.9830200  37.0023500   2.7001430  37.9758530  35.8759170   2.8933010
  39.3169980  37.9533860  10.2580350  39.8155230  38.4279680  10.9232200
  39.4592930  37.0297380  10.4650380  41.7229480  33.2587820   3.6983610
  41.5997260  33.2773950   2.7493120  42.6714040  33.3066760   3.8182010
  38.8106270  48.4943120   2.9711590  39.0647770  48.4564510   2.0490960
  37.8618750  48.3676450   2.9639840  46.5236840  34.1701820  11.1008740
  46.0210440  34.9107220  11.4402550  47.3393500  34.5585820  10.7845530
  44.8158850  39.4135000   4.5470100  43.8748990  39.4285230   4.7217790
  45.1302920  38.6270960   4.9930400  46.8184430  46.5843850   6.2224360
  46.9431850  47.4075020   6.6948170  47.6849990  46.3734580   5.8748510
  34.2901960  48.6775060   5.8941490  35.0264440  48.1290520   6.1650060
  34.6742880  49.5431070   5.7547480  31.1747440  44.7448630   1.7683000
  30.2487220  44.9869770   1.7588410  31.6403870  45.5722890   1.6467750
  33.2960240  47.8621130  15.0827070  34.0972970  48.1833180  15.4962470
  32.7812060  47.5016710  15.8046980  42.1324870  43.9701000  15.0302480
  41.5263030  43.9932600  14.2898230  41.8278980  43.2384040  15.5669730
  43.5625240  47.6981290  13.6411890  44.5146990  47.6139310  13.5912130
  43.4153460  48.3623000  14.3145680  31.0158050  40.3494590  14.0263120
  31.5197070  39.7701870  14.5979350  30.2765470  40.6334820  14.5639490
  38.0695990  41.7565580  13.5598640  37.3041660  42.3250580  13.4753310
  38.2511950  41.4641790  12.6666870  45.2119340  43.4870910  14.1173660
  45.9528810  43.8246670  13.6141120  44.4492020  43.6562970  13.5643430
  33.0481130  38.4924180  14.9213190  33.0886470  38.1938050  15.8298420
  33.9026630  38.8931790  14.7620710  34.9886940  37.0716280  12.8887680
  34.4583400  36.5807230  12.2611020  35.6575010  37.5000480  12.3545610
  43.8865000  41.5385740  12.6528870  44.3006020  41.6930820  13.5019290
  42.9516000  41.6640960  12.8154650  44.3587170  38.8781900  14.6568020
  44.9407940  38.1234220  14.5688500  44.5348940  39.4089340  13.8799500
  35.4759240  34.0378650  12.9684970  35.3816110  33.4199400  12.2435840
  34.8956630  34.7644940  12.7414880  38.2420680  32.5951890  10.0012360
  37.7937980  32.6176150   9.1557910  37.6085880  32.1970910  10.5982660
  38.6480230  41.4906220  10.6224800  39.0668340  42.3338950  10.4501040
  37.7288860  41.6278260  10.3931580  40.9844130  39.2222400  12.0062640
  41.1040340  38.6263540  12.7457480  41.8438130  39.2592090  11.5863940
  43.3232030  39.7759590  10.5825150  42.7967250  40.3002210   9.9790290
  43.6663370  40.4086980  11.2134880  36.4987650  47.7959230  11.7382530
  35.9608740  48.5205290  11.4191230  36.7521610  47.3189570  10.9479870
  37.7512900  35.7643750  13.2638460  38.3412590  35.4559600  13.9516280
  36.9333140  35.2923500  13.4198360  42.5706330  35.3809560  13.4971480
  41.8821850  34.7191100  13.4321470  43.2912350  34.9347830  13.9419940
  39.3549860  49.0310440  11.9969180  39.2808560  49.9345580  12.3041550
  38.4528700  48.7122340  11.9691250  30.7577150  46.3585030   5.3002800
  31.0880160  45.4906090   5.0681440  31.1868150  46.5643550   6.1307760
  35.3539070  44.6894040   2.9604770  35.0534610  44.5659010   3.8608680
  35.2476560  43.8302630   2.5520500  31.2467360  47.2255620   8.0384430
  30.8098350  47.4056420   8.8708580  31.8145040  47.9830240   7.8966150
  46.8829540  46.7272620  12.3261740  46.2831530  46.7865180  11.5825660
  47.0123440  45.7877600  12.4558590  31.0791790  39.7375850   4.3973310
  30.4240630  39.4687490   3.7533010  31.9169740  39.6280330   3.9475290
  48.5847420  42.0688020   5.0107580  48.9556250  41.2855340   4.6043550
  49.2249350  42.7577120   4.8324880  45.5681180  43.4524600  10.4237900
  44.7541020  43.8821760  10.6863690  45.9755380  44.0643010   9.8106950
  47.5271960  39.4441280   2.3167600  47.1515560  38.6769210   1.8848890
  46.7975080  39.8263980   2.8042530  32.1167720  40.1228420   8.9376650
  32.4840760  40.0355820   9.8172670  31.5478540  39.3594970   8.8383510
  46.9171580  38.5912800  11.9507120  46.6857670  38.3625550  11.0505070
  47.1776130  39.5112350  11.9052010  31.6683720  37.0337510  12.8435070
  30.7739770  37.0004270  13.1828780  32.2081270  37.2324300  13.6086320
  45.3559650  33.8169230  14.7286820  46.2329830  33.8252630  15.1120820
  45.3680490  33.0800070  14.1179170  46.8022920  37.6698770   5.6174840
  47.3260400  37.1761420   4.9865010  47.3882340  37.8049130   6.3622410
  46.9812640  37.7538640   9.1394390  46.0315350  37.7202180   9.2539380
  47.1625650  38.6638750   8.9044160  32.1723430  31.3085840   7.1918290
  32.8199620  30.7583220   6.7513450  32.5925270  31.5628990   8.0134100
  47.7210050  35.5633070   4.0904930  47.6109330  35.4089110   5.0287200
  48.4817640  35.0354010   3.8480340  46.0675770  31.5027200  10.5487930
  46.7047990  32.1161340  10.9147120  46.2150660  31.5387860   9.6037160
  45.6257230  48.2043200   3.9506170  46.2216300  47.8827770   3.2740590
  45.8835380  47.7315020   4.7419440  31.9255430  31.4641510   9.9343610
  31.5770250  31.9205330  10.7001790  31.5943130  30.5698640  10.0166040
  33.5319800  44.6361110  14.0996800  33.4889430  44.2654020  14.9811260
  33.6630810  45.5738680  14.2398620  37.2325830  46.1920700   9.7006520
  36.9917190  46.4595260   8.8137040  38.1728470  46.3626430   9.7557380
  39.4380250  32.6553390  13.4563030  39.3769140  33.2475220  14.2058440
  40.3780630  32.5479350  13.3113290  42.0754810  32.3123450  13.0955320
  42.6895220  32.6302740  12.4336400  42.6204370  31.8272040  13.7151180
  48.4929990  48.2115080  10.5017160  47.9988270  48.6083950   9.7844290
  47.8843280  47.5864290  10.8954440  32.5976070  30.9917710  13.2094380
  33.1459060  30.8105760  12.4460490  32.6631380  30.2011820  13.7450690
  33.3707830  47.5823360  11.2194580  32.7768150  47.4508060  11.9584620
  33.3631670  46.7461500  10.7536680  42.8162850  30.8755590   9.4224610
  41.9422690  31.2090700   9.2197540  42.7073600  30.4028770  10.2476480
  43.7234830  33.0826460  10.8066330  43.3948190  32.2678220  10.4268060
  44.6717130  33.0396270  10.6832020  46.1769440  48.8538500   7.7803900
  45.7172410  49.6054310   7.4061920  45.5481900  48.1344970   7.7218700
  33.0020060  44.9481740  10.1702620  32.2754120  44.3287030  10.1028570
  33.0629210  45.3422350   9.3000700  36.6065160  47.1626740   6.9552030
  37.1230180  46.5514100   6.4300290  37.2562540  47.6655520   7.4463040
  39.3460660  48.0535230   7.7821010  39.6338470  47.7989530   6.9054020
  39.8583880  47.5012590   8.3726580  40.5637670  31.7925430   8.3617520
  39.7809460  32.2670930   8.6414280  40.2700600  30.8880260   8.2530700
  45.1158740  32.4948530   6.4066610  45.5566830  32.4393630   5.5588210
  44.8466330  33.4106540   6.4776790  46.9797310  32.1263770   4.4175430
  46.9185710  31.1824990   4.2706450  47.7589340  32.2343860   4.9628890
  31.2850060  48.2656130   3.3799380  31.1172100  47.6326810   4.0781270
  30.4184570  48.4715530   3.0293570  38.4491890  34.2112180   3.8733550
  37.6366400  33.8369070   3.5329430  38.9533530  33.4557260   4.1754740
  42.9516870  30.8754630   5.1116620  43.5546240  31.4474840   5.5865140
  42.2109860  31.4394070   4.8890520  36.4741070  32.3612100   2.4778600
  35.8443810  31.6599410   2.6448730  35.9346210  33.1216230   2.2611760
  39.4133020  48.9751330  15.1489210  40.3400330  48.7395600  15.1925170
  39.3983450  49.8023330  14.6675240  47.6478080  48.5176900   2.1463460
  47.8230270  47.8314640   1.5024380  46.9499650  49.0423950   1.7540130
  36.5996630  31.6396080  14.9131090  36.3180900  32.1429680  14.1491910
  36.9816330  30.8417830  14.5473220  43.2012090  31.0549660  15.4911560
  43.0877540  31.3744270  16.3863080  44.0181830  31.4562170  15.1948840
  45.9810580  48.2021190  14.9730250  46.7735900  47.7070420  14.7656210
  46.2743730  48.8811330  15.5805860  42.1070240  20.2998640  79.7263750
  42.0264290  19.3853250  79.4555460  41.6934660  20.7965710  79.0203460
  40.2388280  22.0777660  81.6073020  39.4630380  21.5978100  81.8971590
  40.8901210  21.3983310  81.4329180  34.2554110  22.3897470  82.4848780
  33.4238990  22.1346180  82.8845290  34.8635090  22.4608240  83.2206700
  44.2595710  26.4837850  80.3872150  43.7977240  25.7125090  80.7159320
  45.0721260  26.5103920  80.8924600  34.2355370  26.4237560  82.6806800
  34.5383410  25.5335300  82.5017020  34.9798960  26.9807780  82.4529050
  32.6646060  17.3499360  76.2691170  31.7762760  17.6915330  76.1671050
  32.9487250  17.1499680  75.3772000  30.6279070  19.9505010  82.1530870
  31.1995180  19.1827210  82.1534510  30.6280610  20.2493770  81.2437480
  40.4859020  28.7695860  80.0076140  39.8670460  29.2253360  79.4370580
  41.3410800  28.9247320  79.6065840  39.6797270  24.7534850  81.6143180
  39.6105550  23.8124790  81.4532310  40.4417130  24.8436260  82.1865750
  31.8703940  15.3589370  83.9399800  31.6906780  14.4615120  84.2202560
  31.4684020  15.9061240  84.6146750  40.7102440  17.5605230  81.8412110
  41.0867260  16.6877110  81.7285780  40.6121950  17.8963930  80.9502550
  34.8407450  15.9330860  77.3029550  34.9474200  16.8334590  77.6098310
  33.9299810  15.8848830  77.0124200  44.4926560  15.0555670  78.7740450
  45.3136180  14.5652240  78.8165930  44.5260640  15.6453330  79.5272290
  32.4890610  17.8549870  82.5482140  33.1700720  18.1188240  83.1669540
  32.1738660  17.0150740  82.8820150  36.6815180  18.9017230  81.6354730
  37.1893400  19.3998200  82.2759750  37.2128420  18.1252430  81.4594090
  48.7826110  17.0722420  85.3384080  48.0778280  17.4604130  84.8199190
  49.0484030  17.7672710  85.9405010  34.9651280  13.5415790  85.9018150
  34.9669720  14.0588180  85.0964050  34.1355590  13.0645970  85.8788080
  41.3522370  23.6535100  77.4008050  40.7339640  24.1184550  76.8370770
  41.8645620  24.3462580  77.8177560  36.2154130  23.1810970  84.0791650
  35.8823510  23.8079890  84.7212720  36.3920810  23.7072850  83.2993320
  44.7288040  16.9956050  81.5467990  44.0243610  17.2840940  82.1271100
  45.0900200  17.8056160  81.1867550  34.6466610  15.2525750  83.9088600
  34.9883420  16.0967800  83.6142470  33.7082420  15.4009490  84.0253940
  35.4273230  25.1491770  85.8940830  36.0447230  25.8242850  85.6125280
  34.5666350  25.5579750  85.8028330  30.7205570  24.3391630  74.7747680
  30.3433550  24.8278730  74.0432580  30.9778640  25.0116910  75.4054210
  46.3450820  26.6131180  83.8095470  45.6614340  27.2830290  83.8012140
  46.8845110  26.8111830  83.0440330  47.7974960  16.4410840  81.9377200
  46.8499870  16.4749820  82.0692630  48.1224950  17.2549790  82.3226560
  38.3294500  12.7408020  80.2333190  38.6369480  12.1854910  79.5168690
  37.3995200  12.8752480  80.0506180  43.8809560  28.4575310  82.5240650
  43.8936720  28.0537600  81.6562910  43.3284780  29.2322600  82.4202080
  45.1754980  25.1791530  77.6130820  45.0651310  24.2365860  77.7380240
  45.1723230  25.5407170  78.4993580  43.2795000  23.3605150  83.8523260
  43.6963790  23.1465260  83.0176720  44.0034820  23.6177940  84.4231880
  40.7175260  20.8056850  76.9693310  39.7904540  20.7394230  77.1981780
  40.8700080  21.7436980  76.8548550  40.7044340  17.0773850  73.9660470
  39.7648010  17.2387810  74.0512930  41.0227600  17.7959530  73.4196460
  47.2257100  21.7592370  83.9439500  46.3975730  21.8285460  83.4689630
  47.8207580  22.3446680  83.4755330  44.7472550  22.3677150  77.4728560
  44.1284970  22.0296700  76.8254860  44.7297000  21.7236910  78.1807750
  44.1899110  18.5461690  84.8894370  43.7770290  19.3715400  85.1434360
  43.4575060  17.9606730  84.6970730  36.3231900  21.3321590  79.7513040
  35.9188900  20.6198840  79.2558940  36.4095020  20.9874830  80.6401080
  36.7913600  25.0189150  81.9152250  36.4941890  24.4134620  81.2360030
  37.7413420  25.0566460  81.8041610  35.0360520  18.1064800  83.5312080
  35.5875110  18.2160140  82.7565330  35.5504030  18.4802400  84.2467310
  44.8799210  28.5921020  85.5775350  44.4029770  29.3993210  85.3847960
  44.1961000  27.9399350  85.7301560  42.9237250  21.6063960  74.4801310
  43.3630530  20.7686390  74.3339130  43.6365670  22.2393360  74.5665450
  41.0332630  26.5460030  78.4482550  41.4728540  27.2884360  78.0337940
  40.9719520  26.7886600  79.3721510  46.5054390  12.8606770  72.7942350
  46.1927050  12.9533600  73.6941420  47.2666860  13.4387800  72.7439780
  33.0236530  20.2266570  77.2519690  32.9034130  20.9528660  76.6400960
  32.7137420  19.4569480  76.7747600  30.6621900  23.3981710  83.0588330
  30.7402320  23.5330480  82.1144050  31.2763580  22.6897600  83.2516450
  31.9069530  25.0981900  79.4694510  31.4997610  25.2396490  78.6148110
  32.7982540  24.8142060  79.2665720  43.7002810  29.5329150  75.8045560
  43.5403950  29.2432090  76.7027390  43.5349520  28.7569280  75.2690790
  36.1791190  29.3127680  77.5817180  36.0033670  28.3963220  77.3684980
  35.3246930  29.6714970  77.8214980  43.4028940  27.0416710  74.3643560
  42.7094100  27.0394000  73.7045840  44.1451800  26.6176030  73.9337730
  42.9678870  28.6679420  78.4392050  43.4235820  27.8868800  78.7530670
  43.3071390  29.3786240  78.9833230  30.7181420  24.4395880  85.5982790
  30.8812460  23.9701240  84.7802160  31.1833870  23.9319440  86.2631630
  35.4900190  13.5701640  80.6343360  35.0468340  14.3511180  80.3027880
  36.0485180  13.8931530  81.3414300  38.6059010  13.1912340  75.5149190
  37.9813190  13.1872210  76.2402500  38.5189130  12.3243300  75.1185160
  37.5276090  14.1148970  82.4932960  37.8248420  15.0211800  82.4124980
  38.0761650  13.6267750  81.8792530  35.2814410  18.6935210  78.3624610
  35.0555330  18.4772380  79.2671230  34.5006940  19.1263670  78.0170580
  42.5112170  18.6998580  76.9615260  41.9121060  19.4234380  76.7778880
  43.0591780  18.6375360  76.1791710  41.1177040  17.3362120  78.9918540
  41.5106610  17.6534320  78.1787230  41.4793890  16.4574000  79.1063060
  30.1541210  13.9262920  81.2148740  29.8654260  14.4965780  81.9273720
  30.8986970  13.4467370  81.5779970  30.3411440  17.8683040  72.4251460
  30.2586110  18.8113800  72.5666450  29.9894500  17.7257950  71.5463810
  41.7032180  19.9267870  83.0869320  40.9713300  20.4354680  83.4359420
  41.3056520  19.1097850  82.7858100  38.1409570  16.6022070  81.4921810
  38.1445630  16.1612020  80.6426350  39.0360690  16.9239400  81.5993630
  33.9911950  16.4848560  80.4516020  33.6512000  16.9623790  81.2083070
  33.2289270  16.0313680  80.0917120  38.2029720  17.6034150  74.4828570
  38.3242540  17.5620630  75.4314390  37.8178230  18.4658300  74.3275300
  42.1658090  15.3801550  82.4992260  42.1830830  15.8310200  83.3434110
  41.9173670  14.4807190  82.7125700  37.2151220  19.9135290  73.8811870
  36.6468120  19.4653540  73.2547780  37.9240220  20.2728070  73.3477020
  38.4417540  20.6623850  83.2387220  38.8087670  20.1882420  83.9848560
  38.2522600  21.5365420  83.5795560  31.3058030  15.4067540  79.3680690
  31.0204950  15.0423210  80.2059310  31.2436890  14.6748000  78.7543830
  36.2316910  19.7032490  85.5571430  35.9273980  20.5824470  85.7821790
  37.1863370  19.7632280  85.5928870  34.7598700  23.9093480  76.1538280
  33.9860960  23.3691100  75.9937000  35.4893330  23.3900090  75.8156040
  45.5186680  22.9058840  81.9464670  46.2385800  23.4014130  81.5560780
  45.3168500  22.2276730  81.3018540  40.9796620  14.2996800  76.0894060
  40.1661230  13.8009970  76.0139370  40.7858570  15.1395050  75.6730410
  43.6945010  18.6716450  74.3856220  44.5824630  18.9833680  74.2107560
  43.6650100  17.7988700  73.9936800  34.8036100  23.5773860  79.7917090
  35.3214770  22.7742120  79.7373980  34.3520120  23.5153000  80.6333920
  39.6905600  24.8440140  75.0644390  40.0321300  25.5882370  74.5687710
  38.8618310  25.1571260  75.4269220  45.9659280  19.9828290  73.8536080
  45.8823000  20.4142510  73.0032520  46.6853470  20.4426640  74.2862900
  46.9946530  26.8370550  76.5818210  46.3522690  26.1826170  76.8561930
  46.6077190  27.2425640  75.8058880  42.5733010  24.1655980  80.4289900
  42.9256830  23.5684110  79.7691270  41.6895340  23.8400210  80.5998150
  38.6596290  24.9253670  77.8360310  39.3467420  25.4722880  78.2167900
  37.8728710  25.4694400  77.8709920  30.7988690  20.5426490  73.3277390
  31.6683540  20.8251290  73.6113310  30.3079010  21.3562360  73.2126200
  37.9623500  21.9299700  77.4485670  38.4186280  22.7404950  77.6745860
  37.6111710  21.6122840  78.2804160  40.2656110  27.4406040  84.6777970
  40.9098330  27.6465420  85.3551390  40.6285550  26.6794440  84.2248820
  33.8635280  12.2737350  77.9208190  33.7349910  12.2655250  78.8693110
  33.0397300  12.6120440  77.5699200  41.5388190  25.4438390  83.3955420
  42.1810420  24.7431550  83.5087590  42.0637540  26.2236830  83.2152310
  45.3843910  25.7287010  73.1194560  45.1581490  25.0117450  73.7119200
  44.9940110  25.4799450  72.2816310  31.1659940  29.7553870  73.8939020
  31.5257580  30.3543210  73.2396290  31.0252280  30.3013760  74.6674050
  44.9660160  23.6458950  74.7808720  44.6781860  24.1071640  75.5686600
  45.7612330  23.1856720  75.0492940  37.1828560  27.1385070  74.7112690
  37.1738660  27.8714760  74.0957200  36.2626920  26.8916650  74.8039650
  32.7835200  22.3599960  75.4559450  32.1763150  23.0998860  75.4654750
  33.2584550  22.4499320  74.6297650  42.3567990  16.5250780  85.1316340
  42.7248810  15.7045990  85.4595910  41.4966190  16.5852670  85.5471990
  45.7230020  15.4807720  75.9403900  45.0943180  15.5853390  75.2262130
  45.2281940  15.7004500  76.7297780  40.1688160  27.2013310  73.3737880
  40.2700140  26.9977300  72.4439860  39.2689900  26.9471590  73.5785660
  37.6914050  17.7593670  77.3561780  36.9830200  18.2280010  77.7975390
  37.9758530  17.1015680  77.9906970  39.3169980  19.1790370  85.3554310
  39.8155230  19.6536190  86.0206160  39.4592930  18.2553890  85.5624340
  41.7229480  14.4844330  78.7957570  41.5997260  14.5030460  77.8467080
  42.6714040  14.5323270  78.9155970  38.8106270  29.7199630  78.0685550
  39.0647770  29.6821020  77.1464920  37.8618750  29.5932960  78.0613800
  35.8949070  16.0678750  74.7312490  36.7439600  16.5048900  74.6652680
  35.5280340  16.3799010  75.5584550  44.8158850  20.6391510  79.6444060
  43.8748990  20.6541740  79.8191750  45.1302920  19.8527470  80.0904360
  34.7940490  22.3211110  73.2048020  35.5603760  22.2092470  73.7673450
  34.8715180  21.6249080  72.5524790  33.4887250  19.7536180  73.8880910
  33.5690840  18.8063690  73.9998310  34.3807000  20.0843060  73.9941570
  46.8184430  27.8100360  81.3198320  46.9431850  28.6331530  81.7922130
  47.6849990  27.5991090  80.9722470  34.2901960  29.9031570  80.9915450
  35.0264440  29.3547030  81.2624020  34.6742880  30.7687580  80.8521440
  31.1747440  25.9705140  76.8656960  30.2487220  26.2126280  76.8562370
  31.6403870  26.7979400  76.7441710  37.4004270  29.0761880  72.8141020
  38.1932880  29.3650710  72.3622810  36.8808620  28.6454050  72.1353500
  46.4534440  28.3032010  74.2377760  46.1675950  27.8897150  73.4231940
  46.2553990  29.2319720  74.1178280  37.9181670  24.2965290  72.6783370
  37.8132310  23.6817640  73.4044750  37.7505890  23.7731180  71.8946380
  41.1584400  23.3585320  73.2825360  40.6094500  23.8054620  73.9268100
  41.7803660  22.8534570  73.8063030  36.8259520  22.3176240  75.1790660
  37.2475940  22.1516110  76.0222050  36.9510360  21.5076470  74.6845800
  39.3387160  21.3413850  72.4267760  39.8592820  20.6262870  72.0608910
  39.9855560  21.9799720  72.7268270  38.2420680  13.8208400  85.0986320
  37.7937980  13.8432660  84.2531870  37.6085880  13.4227420  85.6956620
  38.6480230  22.7162730  85.7198760  39.0668340  23.5595460  85.5475000
  37.7288860  22.8534770  85.4905540  35.7218420  18.3909470  72.1248820
  35.5207480  17.5276830  72.4862160  35.5510470  18.3042830  71.1870420
  43.2006730  13.2017700  74.6535700  43.4809020  12.3585600  75.0095120
  42.4272460  13.4340810  75.1674450  34.5201220  15.4910090  72.1126700
  34.8227120  15.4977520  71.2045850  35.2595810  15.1407950  72.6094360
  37.7386150  14.4344710  73.0982900  37.3908150  13.7568700  72.5185350
  37.9398920  13.9734220  73.9126290  39.9035190  29.4225460  74.7169500
  40.7985980  29.7610430  74.7388260  39.9352820  28.7004870  74.0893780
  33.5431350  24.7952510  72.9456500  33.9806220  25.3382180  73.6014080
  34.0279080  23.9699460  72.9552840  30.7577150  27.5841540  80.3976760
  31.0880160  26.7162600  80.1655400  31.1868150  27.7900060  81.2281720
  35.3539070  25.9150550  78.0578730  35.0534610  25.7915520  78.9582640
  35.2476560  25.0559140  77.6494460  31.2467360  28.4512130  83.1358390
  30.8098350  28.6312930  83.9682540  31.8145040  29.2086750  82.9940110
  48.1230990  25.6946950  72.7605410  47.2923950  25.7623600  73.2312640
  48.3002820  26.5851070  72.4572270  47.5787450  22.4394430  75.2639610
  48.3406360  23.0091080  75.3699300  47.5941820  21.8721630  76.0347920
  31.0791790  20.9632360  79.4947270  30.4240630  20.6944000  78.8506970
  31.9169740  20.8536840  79.0449250  48.5847420  23.2944530  80.1081540
  48.9556250  22.5111850  79.7017510  49.2249350  23.9833630  79.9298840
  45.5681180  24.6781110  85.5211860  44.7541020  25.1078270  85.7837650
  45.9755380  25.2899520  84.9080910  47.6306620  22.7328800  72.4212130
  47.9055460  23.6407680  72.2931350  47.4417360  22.6691330  73.3574120
  44.0282230  15.7573650  73.7165760  44.4467110  15.5704630  72.8762420
  43.7218290  14.9052700  74.0268690  47.5271960  20.6697790  77.4141560
  47.1515560  19.9025720  76.9822850  46.7975080  21.0520490  77.9016490
  32.1167720  21.3484930  84.0350610  32.4840760  21.2612330  84.9146630
  31.5478540  20.5851480  83.9357470  30.2929870  18.1731290  75.4372600
  29.3893950  18.4361490  75.2624260  30.7770490  18.4442460  74.6572560
  46.8022920  18.8955280  80.7148800  47.3260400  18.4017930  80.0838970
  47.3882340  19.0305640  81.4596370  46.9812640  18.9795150  84.2368350
  46.0315350  18.9458690  84.3513340  47.1625650  19.8895260  84.0018120
  32.8357080  17.2296830  73.3466980  33.5448780  16.8080050  72.8614260
  32.1197020  17.2972060  72.7150330  32.4831240  13.2836160  72.3869630
  33.2059370  13.8245100  72.7050850  32.7555760  13.0099580  71.5111170
  46.2922890  18.1528630  76.6541210  46.7882010  17.9199500  77.4390090
  46.0938960  17.3140470  76.2378850  32.1723430  12.5342350  82.2892250
  32.8199620  11.9839730  81.8487410  32.5925270  12.7885500  83.1108060
  47.7210050  16.7889580  79.1878890  47.6109330  16.6345620  80.1261160
  48.4817640  16.2610520  78.9454300  46.0675770  12.7283710  85.6461890
  46.7047990  13.3417850  86.0121080  46.2150660  12.7644370  84.7011120
  48.6100320  14.6197500  72.4285030  49.5349630  14.4878680  72.2203320
  48.5876110  14.6990320  73.3821480  48.6838810  15.3908160  75.0541740
  47.8890310  15.3253280  75.5834650  48.8882090  16.3258800  75.0427090
  45.6257230  29.4299710  79.0480130  46.2216300  29.1084280  78.3714550
  45.8835380  28.9571530  79.8393400  31.9255430  12.6898020  85.0317570
  31.5770250  13.1461840  85.7975750  31.5943130  11.7955150  85.1140000
  37.2325830  27.4177210  84.7980480  36.9917190  27.6851770  83.9111000
  38.1728470  27.5882940  84.8531340  48.4929990  29.4371590  85.5991120
  47.9988270  29.8340460  84.8818250  47.8843280  28.8120800  85.9928400
  42.8162850  12.1012100  84.5198570  41.9422690  12.4347210  84.3171500
  42.7073600  11.6285280  85.3450440  43.7234830  14.3082970  85.9040290
  43.3948190  13.4934730  85.5242020  44.6717130  14.2652780  85.7805980
  46.1769440  30.0795010  82.8777860  45.7172410  30.8310820  82.5035880
  45.5481900  29.3601480  82.8192660  33.0020060  26.1738250  85.2676580
  32.2754120  25.5543540  85.2002530  33.0629210  26.5678860  84.3974660
  36.6065160  28.3883250  82.0525990  37.1230180  27.7770610  81.5274250
  37.2562540  28.8912030  82.5437000  39.3460660  29.2791740  82.8794970
  39.6338470  29.0246040  82.0027980  39.8583880  28.7269100  83.4700540
  40.5637670  13.0181940  83.4591480  39.7809460  13.4927440  83.7388240
  40.2700600  12.1136770  83.3504660  45.1158740  13.7205040  81.5040570
  45.5566830  13.6650140  80.6562170  44.8466330  14.6363050  81.5750750
  46.9797310  13.3520280  79.5149390  46.9185710  12.4081500  79.3680410
  47.7589340  13.4600370  80.0602850  31.2850060  29.4912640  78.4773340
  31.1172100  28.8583320  79.1755230  30.4184570  29.6972040  78.1267530
  31.9078080  13.3229420  75.9805200  32.6657440  13.4358300  75.4069230
  31.4455250  14.1598620  75.9348630  38.4491890  15.4368690  78.9707510
  37.6366400  15.0625580  78.6303390  38.9533530  14.6813770  79.2728700
  42.9516870  12.1011140  80.2090580  43.5546240  12.6731350  80.6839100
  42.2109860  12.6650580  79.9864480  46.0951470  12.5032700  75.4830860
  46.2902100  13.4016150  75.7498290  45.3081340  12.2719780  75.9763810
  32.8912760  28.1845870  75.9223480  32.3660380  28.5653900  75.2185440
  32.8157340  28.8096640  76.6433190  34.2803230  13.8493470  74.5207170
  34.8095990  13.0623270  74.3915120  34.9131550  14.5284660  74.7542700
  36.4741070  13.5868610  77.5752560  35.8443810  12.8855920  77.7422690
  35.9346210  14.3472740  77.3585720  47.6478080  29.7433410  77.2437420
  47.8230270  29.0571150  76.5998340  46.9499650  30.2680460  76.8514090
  35.4905730  30.1328250  74.7972730  36.2224550  29.8487530  74.2496620
  35.7499400  29.8941530  75.6872110  34.6520520  26.2492980  74.8019060
  34.0229400  26.7178080  75.3504890  34.7668350  25.4042200  75.2365250
  32.6646060  17.3499360  57.4947680  31.7762760  17.6915330  57.3927560
  32.9487250  17.1499680  56.6028510  30.6279070  19.9505010  63.3787380
  31.1995180  19.1827210  63.3791020  30.6280610  20.2493770  62.4693990
  31.8703940  15.3589370  65.1656310  31.6906780  14.4615120  65.4459070
  31.4684020  15.9061240  65.8403260  40.7102440  17.5605230  63.0668620
  41.0867260  16.6877110  62.9542290  40.6121950  17.8963930  62.1759060
  34.8407450  15.9330860  58.5286060  34.9474200  16.8334590  58.8354820
  33.9299810  15.8848830  58.2380710  44.4926560  15.0555670  59.9996960
  45.3136180  14.5652240  60.0422440  44.5260640  15.6453330  60.7528800
  32.4890610  17.8549870  63.7738650  33.1700720  18.1188240  64.3926050
  32.1738660  17.0150740  64.1076660  48.7826110  17.0722420  66.5640590
  48.0778280  17.4604130  66.0455700  49.0484030  17.7672710  67.1661520
  34.9651280  13.5415790  67.1274660  34.9669720  14.0588180  66.3220560
  34.1355590  13.0645970  67.1044590  44.7288040  16.9956050  62.7724500
  44.0243610  17.2840940  63.3527610  45.0900200  17.8056160  62.4124060
  34.6466610  15.2525750  65.1345110  34.9883420  16.0967800  64.8398980
  33.7082420  15.4009490  65.2510450  47.7974960  16.4410840  63.1633710
  46.8499870  16.4749820  63.2949140  48.1224950  17.2549790  63.5483070
  38.3294500  12.7408020  61.4589700  38.6369480  12.1854910  60.7425200
  37.3995200  12.8752480  61.2762690  40.7044340  17.0773850  55.1916980
  39.7648010  17.2387810  55.2769440  41.0227600  17.7959530  54.6452970
  47.2257100  21.7592370  65.1696010  46.3975730  21.8285460  64.6946140
  47.8207580  22.3446680  64.7011840  44.1899110  18.5461690  66.1150880
  43.7770290  19.3715400  66.3690870  43.4575060  17.9606730  65.9227240
  35.0360520  18.1064800  64.7568590  35.5875110  18.2160140  63.9821840
  35.5504030  18.4802400  65.4723820  44.8799210  28.5921020  66.8031860
  44.4029770  29.3993210  66.6104470  44.1961000  27.9399350  66.9558070
  42.9237250  21.6063960  55.7057820  43.3630530  20.7686390  55.5595640
  43.6365670  22.2393360  55.7921960  46.5054390  12.8606770  54.0198860
  46.1927050  12.9533600  54.9197930  47.2666860  13.4387800  53.9696290
  48.4598420  28.3532960  71.8723250  48.9358140  28.8315850  72.5512330
  49.0805580  28.2850450  71.1468750  47.8631670  25.5445810  69.0323260
  47.9894730  25.3057690  68.1140440  47.9053050  24.7130350  69.5045340
  47.7155680  17.5978270  69.9973000  47.0999950  18.1057940  69.4688460
  47.3952100  16.6976600  69.9398940  30.7181420  24.4395880  66.8239300
  30.8812460  23.9701240  66.0058670  31.1833870  23.9319440  67.4888140
  35.4900190  13.5701640  61.8599870  35.0468340  14.3511180  61.5284390
  36.0485180  13.8931530  62.5670810  39.7770000  16.4370160  67.4635190
  39.3149370  16.6453180  68.2755130  39.3748110  15.6229510  67.1605860
  44.7774510  17.6579110  68.5931850  43.9268100  17.3584860  68.9140920
  44.6176300  17.9021120  67.6815670  41.8724220  19.1580860  70.6930640
  42.1977630  18.3244610  70.3532870  42.6604550  19.6809380  70.8408970
  38.6059010  13.1912340  56.7405700  37.9813190  13.1872210  57.4659010
  38.5189130  12.3243300  56.3441670  37.5276090  14.1148970  63.7189470
  37.8248420  15.0211800  63.6381490  38.0761650  13.6267750  63.1049040
  35.2814410  18.6935210  59.5881120  35.0555330  18.4772380  60.4927740
  34.5006940  19.1263670  59.2427090  42.5112170  18.6998580  58.1871770
  41.9121060  19.4234380  58.0035390  43.0591780  18.6375360  57.4048220
  37.7213620  19.5920790  70.2541390  37.6257220  18.6515520  70.1041790
  38.5645600  19.8135860  69.8589460  41.1177040  17.3362120  60.2175050
  41.5106610  17.6534320  59.4043740  41.4793890  16.4574000  60.3319570
  32.8524160  16.0034460  68.4075170  32.4587550  16.8509670  68.6147950
  32.1642560  15.3660830  68.5983810  39.4269210  16.0869430  71.4771910
  38.7367530  15.8941630  72.1118000  40.1701510  16.3704070  72.0096210
  30.1541210  13.9262920  62.4405250  29.8654260  14.4965780  63.1530230
  30.8986970  13.4467370  62.8036480  30.3411440  17.8683040  53.6507970
  30.2586110  18.8113800  53.7922960  29.9894500  17.7257950  52.7720320
  38.1409570  16.6022070  62.7178320  38.1445630  16.1612020  61.8682860
  39.0360690  16.9239400  62.8250140  33.9911950  16.4848560  61.6772530
  33.6512000  16.9623790  62.4339580  33.2289270  16.0313680  61.3173630
  42.1658090  15.3801550  63.7248770  42.1830830  15.8310200  64.5690620
  41.9173670  14.4807190  63.9382210  45.5928840  12.7933730  69.5635150
  45.9174610  12.0623390  70.0893130  45.6285350  12.4747370  68.6616140
  32.2920400  23.8147310  68.9835110  31.9075190  23.1740980  69.5818070
  32.6032590  24.5183430  69.5529840  31.3058030  15.4067540  60.5937200
  31.0204950  15.0423210  61.4315820  31.2436890  14.6748000  59.9800340
  40.9796620  14.2996800  57.3150570  40.1661230  13.8009970  57.2395880
  40.7858570  15.1395050  56.8986920  43.6945010  18.6716450  55.6112730
  44.5824630  18.9833680  55.4364070  43.6650100  17.7988700  55.2193310
  32.2880640  20.5435230  67.9299300  31.9295580  21.2089080  68.5172640
  31.9935200  19.7118780  68.3011920  40.8322210  25.7988470  68.8093980
  40.8466750  24.8669430  68.5912890  40.1247310  25.8848230  69.4483750
  45.9659280  19.9828290  55.0792590  45.8823000  20.4142510  54.2289030
  46.6853470  20.4426640  55.5119410  47.0433420  22.4395810  68.1562560
  46.3181610  23.0324590  67.9591950  47.5708880  22.4319350  67.3575930
  33.8635280  12.2737350  59.1464700  33.7349910  12.2655250  60.0949620
  33.0397300  12.6120440  58.7955710  30.8629210  14.0328470  68.6071400
  30.1487730  14.2325390  69.2124010  31.2824250  13.2568040  68.9786200
  31.1501800  28.0208730  69.5937930  31.2592920  27.0803470  69.4533320
  30.4982360  28.2863480  68.9451660  42.3567990  16.5250780  66.3572850
  42.7248810  15.7045990  66.6852420  41.4966190  16.5852670  66.7728500
  45.7230020  15.4807720  57.1660410  45.0943180  15.5853390  56.4518640
  45.2281940  15.7004500  57.9554290  37.6914050  17.7593670  58.5818290
  36.9830200  18.2280010  59.0231900  37.9758530  17.1015680  59.2163480
  41.7229480  14.4844330  60.0214080  41.5997260  14.5030460  59.0723590
  42.6714040  14.5323270  60.1412480  35.8949070  16.0678750  55.9569000
  36.7439600  16.5048900  55.8909190  35.5280340  16.3799010  56.7841060
  46.5236840  15.3958330  67.4239210  46.0210440  16.1363730  67.7633020
  47.3393500  15.7842330  67.1076000  33.2960240  29.0877640  71.4057540
  34.0972970  29.4089690  71.8192940  32.7812060  28.7273220  72.1277450
  42.1324870  25.1957510  71.3532950  41.5263030  25.2189110  70.6128700
  41.8278980  24.4640550  71.8900200  43.5625240  28.9237800  69.9642360
  44.5146990  28.8395820  69.9142600  43.4153460  29.5879510  70.6376150
  31.0158050  21.5751100  70.3493590  31.5197070  20.9958380  70.9209820
  30.2765470  21.8591330  70.8869960  45.2119340  24.7127420  70.4404130
  45.9528810  25.0503180  69.9371590  44.4492020  24.8819480  69.8873900
  33.0481130  19.7180690  71.2443660  33.0886470  19.4194560  72.1528890
  33.9026630  20.1188300  71.0851180  34.9886940  18.2972790  69.2118150
  34.4583400  17.8063740  68.5841490  35.6575010  18.7256990  68.6776080
  43.8865000  22.7642250  68.9759340  44.3006020  22.9187330  69.8249760
  42.9516000  22.8897470  69.1385120  44.3587170  20.1038410  70.9798490
  44.9407940  19.3490730  70.8918970  44.5348940  20.6345850  70.2029970
  35.4759240  15.2635160  69.2915440  35.3816110  14.6455910  68.5666310
  34.8956630  15.9901450  69.0645350  38.2420680  13.8208400  66.3242830
  37.7937980  13.8432660  65.4788380  37.6085880  13.4227420  66.9213130
  40.9844130  20.4478910  68.3293110  41.1040340  19.8520050  69.0687950
  41.8438130  20.4848600  67.9094410  43.3232030  21.0016100  66.9055620
  42.7967250  21.5258720  66.3020760  43.6663370  21.6343490  67.5365350
  37.7512900  16.9900260  69.5868930  38.3412590  16.6816110  70.2746750
  36.9333140  16.5180010  69.7428830  42.5706330  16.6066070  69.8201950
  41.8821850  15.9447610  69.7551940  43.2912350  16.1604340  70.2650410
  43.2006730  13.2017700  55.8792210  43.4809020  12.3585600  56.2351630
  42.4272460  13.4340810  56.3930960  34.5201220  15.4910090  53.3383210
  34.8227120  15.4977520  52.4302360  35.2595810  15.1407950  53.8350870
  37.7386150  14.4344710  54.3239410  37.3908150  13.7568700  53.7441860
  37.9398920  13.9734220  55.1382800  44.0282230  15.7573650  54.9422270
  44.4467110  15.5704630  54.1018930  43.7218290  14.9052700  55.2525200
  47.5271960  20.6697790  58.6398070  47.1515560  19.9025720  58.2079360
  46.7975080  21.0520490  59.1273000  32.1167720  21.3484930  65.2607120
  32.4840760  21.2612330  66.1403140  31.5478540  20.5851480  65.1613980
  46.9171580  19.8169310  68.2737590  46.6857670  19.5882060  67.3735540
  47.1776130  20.7368860  68.2282480  31.6683720  18.2594020  69.1665540
  30.7739770  18.2260780  69.5059250  32.2081270  18.4580810  69.9316790
  45.3559650  15.0425740  71.0517290  46.2329830  15.0509140  71.4351290
  45.3680490  14.3056580  70.4409640  30.2929870  18.1731290  56.6629110
  29.3893950  18.4361490  56.4880770  30.7770490  18.4442460  55.8829070
  46.8022920  18.8955280  61.9405310  47.3260400  18.4017930  61.3095480
  47.3882340  19.0305640  62.6852880  46.9812640  18.9795150  65.4624860
  46.0315350  18.9458690  65.5769850  47.1625650  19.8895260  65.2274630
  32.8357080  17.2296830  54.5723490  33.5448780  16.8080050  54.0870770
  32.1197020  17.2972060  53.9406840  32.4831240  13.2836160  53.6126140
  33.2059370  13.8245100  53.9307360  32.7555760  13.0099580  52.7367680
  32.1723430  12.5342350  63.5148760  32.8199620  11.9839730  63.0743920
  32.5925270  12.7885500  64.3364570  47.7210050  16.7889580  60.4135400
  47.6109330  16.6345620  61.3517670  48.4817640  16.2610520  60.1710810
  46.0675770  12.7283710  66.8718400  46.7047990  13.3417850  67.2377590
  46.2150660  12.7644370  65.9267630  48.6100320  14.6197500  53.6541540
  49.5349630  14.4878680  53.4459830  48.5876110  14.6990320  54.6077990
  48.6838810  15.3908160  56.2798250  47.8890310  15.3253280  56.8091160
  48.8882090  16.3258800  56.2683600  31.9255430  12.6898020  66.2574080
  31.5770250  13.1461840  67.0232260  31.5943130  11.7955150  66.3396510
  33.5319800  25.8617620  70.4227270  33.4889430  25.4910530  71.3041730
  33.6630810  26.7995190  70.5629090  39.4380250  13.8809900  69.7793500
  39.3769140  14.4731730  70.5288910  40.3780630  13.7735860  69.6343760
  42.0754810  13.5379960  69.4185790  42.6895220  13.8559250  68.7566870
  42.6204370  13.0528550  70.0381650  48.4929990  29.4371590  66.8247630
  47.9988270  29.8340460  66.1074760  47.8843280  28.8120800  67.2184910
  32.5976070  12.2174220  69.5324850  33.1459060  12.0362270  68.7690960
  32.6631380  11.4268330  70.0681160  42.8162850  12.1012100  65.7455080
  41.9422690  12.4347210  65.5428010  42.7073600  11.6285280  66.5706950
  43.7234830  14.3082970  67.1296800  43.3948190  13.4934730  66.7498530
  44.6717130  14.2652780  67.0062490  40.5637670  13.0181940  64.6847990
  39.7809460  13.4927440  64.9644750  40.2700600  12.1136770  64.5761170
  45.1158740  13.7205040  62.7297080  45.5566830  13.6650140  61.8818680
  44.8466330  14.6363050  62.8007260  46.9797310  13.3520280  60.7405900
  46.9185710  12.4081500  60.5936920  47.7589340  13.4600370  61.2859360
  31.9078080  13.3229420  57.2061710  32.6657440  13.4358300  56.6325740
  31.4455250  14.1598620  57.1605140  38.4491890  15.4368690  60.1964020
  37.6366400  15.0625580  59.8559900  38.9533530  14.6813770  60.4985210
  42.9516870  12.1011140  61.4347090  43.5546240  12.6731350  61.9095610
  42.2109860  12.6650580  61.2120990  46.0951470  12.5032700  56.7087370
  46.2902100  13.4016150  56.9754800  45.3081340  12.2719780  57.2020320
  34.2803230  13.8493470  55.7463680  34.8095990  13.0623270  55.6171630
  34.9131550  14.5284660  55.9799210  36.4741070  13.5868610  58.8009070
  35.8443810  12.8855920  58.9679200  35.9346210  14.3472740  58.5842230
  39.4133020  30.2007840  71.4719680  40.3400330  29.9652110  71.5155640
  39.3983450  31.0279840  70.9905710  36.5996630  12.8652590  71.2361560
  36.3180900  13.3686190  70.4722380  36.9816330  12.0674340  70.8703690
  43.2012090  12.2806170  71.8142030  43.0877540  12.6000780  72.7093550
  44.0181830  12.6818680  71.5179310  45.9810580  29.4277700  71.2960720
  46.7735900  28.9326930  71.0886680  46.2743730  30.1067840  71.9036330
  32.6646060  17.3499360  38.7204190  31.7762760  17.6915330  38.6184070
  32.9487250  17.1499680  37.8285020  30.6279070  19.9505010  44.6043890
  31.1995180  19.1827210  44.6047530  30.6280610  20.2493770  43.6950500
  31.8703940  15.3589370  46.3912820  31.6906780  14.4615120  46.6715580
  31.4684020  15.9061240  47.0659770  34.8407450  15.9330860  39.7542570
  34.9474200  16.8334590  40.0611330  33.9299810  15.8848830  39.4637220
  44.4926560  15.0555670  41.2253470  45.3136180  14.5652240  41.2678950
  44.5260640  15.6453330  41.9785310  32.4890610  17.8549870  44.9995160
  33.1700720  18.1188240  45.6182560  32.1738660  17.0150740  45.3333170
  48.7826110  17.0722420  47.7897100  48.0778280  17.4604130  47.2712210
  49.0484030  17.7672710  48.3918030  34.9651280  13.5415790  48.3531170
  34.9669720  14.0588180  47.5477070  34.1355590  13.0645970  48.3301100
  44.7288040  16.9956050  43.9981010  44.0243610  17.2840940  44.5784120
  45.0900200  17.8056160  43.6380570  34.6466610  15.2525750  46.3601620
  34.9883420  16.0967800  46.0655490  33.7082420  15.4009490  46.4766960
  30.7205570  24.3391630  37.2260700  30.3433550  24.8278730  36.4945600
  30.9778640  25.0116910  37.8567230  47.7974960  16.4410840  44.3890220
  46.8499870  16.4749820  44.5205650  48.1224950  17.2549790  44.7739580
  38.3294500  12.7408020  42.6846210  38.6369480  12.1854910  41.9681710
  37.3995200  12.8752480  42.5019200  40.7044340  17.0773850  36.4173490
  39.7648010  17.2387810  36.5025950  41.0227600  17.7959530  35.8709480
  46.5054390  12.8606770  35.2455370  46.1927050  12.9533600  36.1454440
  47.2666860  13.4387800  35.1952800  33.0236530  20.2266570  39.7032710
  32.9034130  20.9528660  39.0913980  32.7137420  19.4569480  39.2260620
  35.4900190  13.5701640  43.0856380  35.0468340  14.3511180  42.7540900
  36.0485180  13.8931530  43.7927320  39.7770000  16.4370160  48.6891700
  39.3149370  16.6453180  49.5011640  39.3748110  15.6229510  48.3862370
  38.6059010  13.1912340  37.9662210  37.9813190  13.1872210  38.6915520
  38.5189130  12.3243300  37.5698180  37.5276090  14.1148970  44.9445980
  37.8248420  15.0211800  44.8638000  38.0761650  13.6267750  44.3305550
  35.2814410  18.6935210  40.8137630  35.0555330  18.4772380  41.7184250
  34.5006940  19.1263670  40.4683600  42.5112170  18.6998580  39.4128280
  41.9121060  19.4234380  39.2291900  43.0591780  18.6375360  38.6304730
  41.1177040  17.3362120  41.4431560  41.5106610  17.6534320  40.6300250
  41.4793890  16.4574000  41.5576080  32.8524160  16.0034460  49.6331680
  32.4587550  16.8509670  49.8404460  32.1642560  15.3660830  49.8240320
  39.4269210  16.0869430  52.7028420  38.7367530  15.8941630  53.3374510
  40.1701510  16.3704070  53.2352720  30.1541210  13.9262920  43.6661760
  29.8654260  14.4965780  44.3786740  30.8986970  13.4467370  44.0292990
  30.3411440  17.8683040  34.8764480  30.2586110  18.8113800  35.0179470
  29.9894500  17.7257950  33.9976830  33.9911950  16.4848560  42.9029040
  33.6512000  16.9623790  43.6596090  33.2289270  16.0313680  42.5430140
  42.1658090  15.3801550  44.9505280  42.1830830  15.8310200  45.7947130
  41.9173670  14.4807190  45.1638720  37.2151220  19.9135290  36.3324890
  36.6468120  19.4653540  35.7060800  37.9240220  20.2728070  35.7990040
  45.5928840  12.7933730  50.7891660  45.9174610  12.0623390  51.3149640
  45.6285350  12.4747370  49.8872650  31.3058030  15.4067540  41.8193710
  31.0204950  15.0423210  42.6572330  31.2436890  14.6748000  41.2056850
  40.9796620  14.2996800  38.5407080  40.1661230  13.8009970  38.4652390
  40.7858570  15.1395050  38.1243430  43.6945010  18.6716450  36.8369240
  44.5824630  18.9833680  36.6620580  43.6650100  17.7988700  36.4449820
  45.9659280  19.9828290  36.3049100  45.8823000  20.4142510  35.4545540
  46.6853470  20.4426640  36.7375920  46.9946530  26.8370550  39.0331230
  46.3522690  26.1826170  39.3074950  46.6077190  27.2425640  38.2571900
  30.7988690  20.5426490  35.7790410  31.6683540  20.8251290  36.0626330
  30.3079010  21.3562360  35.6639220  33.8635280  12.2737350  40.3721210
  33.7349910  12.2655250  41.3206130  33.0397300  12.6120440  40.0212220
  31.1659940  29.7553870  36.3452040  31.5257580  30.3543210  35.6909310
  31.0252280  30.3013760  37.1187070  30.8629210  14.0328470  49.8327910
  30.1487730  14.2325390  50.4380520  31.2824250  13.2568040  50.2042710
  32.7835200  22.3599960  37.9072470  32.1763150  23.0998860  37.9167770
  33.2584550  22.4499320  37.0810670  42.3567990  16.5250780  47.5829360
  42.7248810  15.7045990  47.9108930  41.4966190  16.5852670  47.9985010
  45.7230020  15.4807720  38.3916920  45.0943180  15.5853390  37.6775150
  45.2281940  15.7004500  39.1810800  37.6914050  17.7593670  39.8074800
  36.9830200  18.2280010  40.2488410  37.9758530  17.1015680  40.4419990
  41.7229480  14.4844330  41.2470590  41.5997260  14.5030460  40.2980100
  42.6714040  14.5323270  41.3668990  35.8949070  16.0678750  37.1825510
  36.7439600  16.5048900  37.1165700  35.5280340  16.3799010  38.0097570
  46.5236840  15.3958330  48.6495720  46.0210440  16.1363730  48.9889530
  47.3393500  15.7842330  48.3332510  34.7940490  22.3211110  35.6561040
  35.5603760  22.2092470  36.2186470  34.8715180  21.6249080  35.0037810
  33.4887250  19.7536180  36.3393930  33.5690840  18.8063690  36.4511330
  34.3807000  20.0843060  36.4454590  31.1747440  25.9705140  39.3169980
  30.2487220  26.2126280  39.3075390  31.6403870  26.7979400  39.1954730
  46.4534440  28.3032010  36.6890780  46.1675950  27.8897150  35.8744960
  46.2553990  29.2319720  36.5691300  34.9886940  18.2972790  50.4374660
  34.4583400  17.8063740  49.8098000  35.6575010  18.7256990  49.9032590
  35.4759240  15.2635160  50.5171950  35.3816110  14.6455910  49.7922820
  34.8956630  15.9901450  50.2901860  38.2420680  13.8208400  47.5499340
  37.7937980  13.8432660  46.7044890  37.6085880  13.4227420  48.1469640
  35.7218420  18.3909470  34.5761840  35.5207480  17.5276830  34.9375180
  35.5510470  18.3042830  33.6383440  42.5706330  16.6066070  51.0458460
  41.8821850  15.9447610  50.9808450  43.2912350  16.1604340  51.4906920
  43.2006730  13.2017700  37.1048720  43.4809020  12.3585600  37.4608140
  42.4272460  13.4340810  37.6187470  34.5201220  15.4910090  34.5639720
  34.8227120  15.4977520  33.6558870  35.2595810  15.1407950  35.0607380
  37.7386150  14.4344710  35.5495920  37.3908150  13.7568700  34.9698370
  37.9398920  13.9734220  36.3639310  33.5431350  24.7952510  35.3969520
  33.9806220  25.3382180  36.0527100  34.0279080  23.9699460  35.4065860
  48.1230990  25.6946950  35.2118430  47.2923950  25.7623600  35.6825660
  48.3002820  26.5851070  34.9085290  47.5787450  22.4394430  37.7152630
  48.3406360  23.0091080  37.8212320  47.5941820  21.8721630  38.4860940
  31.0791790  20.9632360  41.9460290  30.4240630  20.6944000  41.3019990
  31.9169740  20.8536840  41.4962270  48.5847420  23.2944530  42.5594560
  48.9556250  22.5111850  42.1530530  49.2249350  23.9833630  42.3811860
  47.6306620  22.7328800  34.8725150  47.9055460  23.6407680  34.7444370
  47.4417360  22.6691330  35.8087140  44.0282230  15.7573650  36.1678780
  44.4467110  15.5704630  35.3275440  43.7218290  14.9052700  36.4781710
  47.5271960  20.6697790  39.8654580  47.1515560  19.9025720  39.4335870
  46.7975080  21.0520490  40.3529510  31.6683720  18.2594020  50.3922050
  30.7739770  18.2260780  50.7315760  32.2081270  18.4580810  51.1573300
  45.3559650  15.0425740  52.2773800  46.2329830  15.0509140  52.6607800
  45.3680490  14.3056580  51.6666150  30.2929870  18.1731290  37.8885620
  29.3893950  18.4361490  37.7137280  30.7770490  18.4442460  37.1085580
  46.8022920  18.8955280  43.1661820  47.3260400  18.4017930  42.5351990
  47.3882340  19.0305640  43.9109390  32.8357080  17.2296830  35.7980000
  33.5448780  16.8080050  35.3127280  32.1197020  17.2972060  35.1663350
  32.4831240  13.2836160  34.8382650  33.2059370  13.8245100  35.1563870
  32.7555760  13.0099580  33.9624190  46.2922890  18.1528630  39.1054230
  46.7882010  17.9199500  39.8903110  46.0938960  17.3140470  38.6891870
  32.1723430  12.5342350  44.7405270  32.8199620  11.9839730  44.3000430
  32.5925270  12.7885500  45.5621080  47.7210050  16.7889580  41.6391910
  47.6109330  16.6345620  42.5774180  48.4817640  16.2610520  41.3967320
  46.0675770  12.7283710  48.0974910  46.7047990  13.3417850  48.4634100
  46.2150660  12.7644370  47.1524140  48.6100320  14.6197500  34.8798050
  49.5349630  14.4878680  34.6716340  48.5876110  14.6990320  35.8334500
  48.6838810  15.3908160  37.5054760  47.8890310  15.3253280  38.0347670
  48.8882090  16.3258800  37.4940110  31.9255430  12.6898020  47.4830590
  31.5770250  13.1461840  48.2488770  31.5943130  11.7955150  47.5653020
  39.4380250  13.8809900  51.0050010  39.3769140  14.4731730  51.7545420
  40.3780630  13.7735860  50.8600270  42.0754810  13.5379960  50.6442300
  42.6895220  13.8559250  49.9823380  42.6204370  13.0528550  51.2638160
  32.5976070  12.2174220  50.7581360  33.1459060  12.0362270  49.9947470
  32.6631380  11.4268330  51.2937670  42.8162850  12.1012100  46.9711590
  41.9422690  12.4347210  46.7684520  42.7073600  11.6285280  47.7963460
  43.7234830  14.3082970  48.3553310  43.3948190  13.4934730  47.9755040
  44.6717130  14.2652780  48.2319000  40.5637670  13.0181940  45.9104500
  39.7809460  13.4927440  46.1901260  40.2700600  12.1136770  45.8017680
  45.1158740  13.7205040  43.9553590  45.5566830  13.6650140  43.1075190
  44.8466330  14.6363050  44.0263770  46.9797310  13.3520280  41.9662410
  46.9185710  12.4081500  41.8193430  47.7589340  13.4600370  42.5115870
  31.9078080  13.3229420  38.4318220  32.6657440  13.4358300  37.8582250
  31.4455250  14.1598620  38.3861650  38.4491890  15.4368690  41.4220530
  37.6366400  15.0625580  41.0816410  38.9533530  14.6813770  41.7241720
  42.9516870  12.1011140  42.6603600  43.5546240  12.6731350  43.1352120
  42.2109860  12.6650580  42.4377500  46.0951470  12.5032700  37.9343880
  46.2902100  13.4016150  38.2011310  45.3081340  12.2719780  38.4276830
  34.2803230  13.8493470  36.9720190  34.8095990  13.0623270  36.8428140
  34.9131550  14.5284660  37.2055720  36.4741070  13.5868610  40.0265580
  35.8443810  12.8855920  40.1935710  35.9346210  14.3472740  39.8098740
  47.6478080  29.7433410  39.6950440  47.8230270  29.0571150  39.0511360
  46.9499650  30.2680460  39.3027110  36.5996630  12.8652590  52.4618070
  36.3180900  13.3686190  51.6978890  36.9816330  12.0674340  52.0960200
  43.2012090  12.2806170  53.0398540  43.0877540  12.6000780  53.9350060
  44.0181830  12.6818680  52.7435820  42.1070240  20.2998640  23.4033280
  42.0264290  19.3853250  23.1324990  41.6934660  20.7965710  22.6972990
  40.2388280  22.0777660  25.2842550  39.4630380  21.5978100  25.5741120
  40.8901210  21.3983310  25.1098710  34.2554110  22.3897470  26.1618310
  33.4238990  22.1346180  26.5614820  34.8635090  22.4608240  26.8976230
  44.2595710  26.4837850  24.0641680  43.7977240  25.7125090  24.3928850
  45.0721260  26.5103920  24.5694130  34.2355370  26.4237560  26.3576330
  34.5383410  25.5335300  26.1786550  34.9798960  26.9807780  26.1298580
  32.6646060  17.3499360  19.9460700  31.7762760  17.6915330  19.8440580
  32.9487250  17.1499680  19.0541530  30.6279070  19.9505010  25.8300400
  31.1995180  19.1827210  25.8304040  30.6280610  20.2493770  24.9207010
  40.4859020  28.7695860  23.6845670  39.8670460  29.2253360  23.1140110
  41.3410800  28.9247320  23.2835370  39.6797270  24.7534850  25.2912710
  39.6105550  23.8124790  25.1301840  40.4417130  24.8436260  25.8635280
  31.8703940  15.3589370  27.6169330  31.6906780  14.4615120  27.8972090
  31.4684020  15.9061240  28.2916280  40.7102440  17.5605230  25.5181640
  41.0867260  16.6877110  25.4055310  40.6121950  17.8963930  24.6272080
  34.8407450  15.9330860  20.9799080  34.9474200  16.8334590  21.2867840
  33.9299810  15.8848830  20.6893730  44.4926560  15.0555670  22.4509980
  45.3136180  14.5652240  22.4935460  44.5260640  15.6453330  23.2041820
  32.4890610  17.8549870  26.2251670  33.1700720  18.1188240  26.8439070
  32.1738660  17.0150740  26.5589680  36.6815180  18.9017230  25.3124260
  37.1893400  19.3998200  25.9529280  37.2128420  18.1252430  25.1363620
  48.7826110  17.0722420  29.0153610  48.0778280  17.4604130  28.4968720
  49.0484030  17.7672710  29.6174540  34.9651280  13.5415790  29.5787680
  34.9669720  14.0588180  28.7733580  34.1355590  13.0645970  29.5557610
  41.3522370  23.6535100  21.0777580  40.7339640  24.1184550  20.5140300
  41.8645620  24.3462580  21.4947090  36.2154130  23.1810970  27.7561180
  35.8823510  23.8079890  28.3982250  36.3920810  23.7072850  26.9762850
  44.7288040  16.9956050  25.2237520  44.0243610  17.2840940  25.8040630
  45.0900200  17.8056160  24.8637080  34.6466610  15.2525750  27.5858130
  34.9883420  16.0967800  27.2912000  33.7082420  15.4009490  27.7023470
  35.4273230  25.1491770  29.5710360  36.0447230  25.8242850  29.2894810
  34.5666350  25.5579750  29.4797860  30.7205570  24.3391630  18.4517210
  30.3433550  24.8278730  17.7202110  30.9778640  25.0116910  19.0823740
  46.3450820  26.6131180  27.4865000  45.6614340  27.2830290  27.4781670
  46.8845110  26.8111830  26.7209860  47.7974960  16.4410840  25.6146730
  46.8499870  16.4749820  25.7462160  48.1224950  17.2549790  25.9996090
  38.3294500  12.7408020  23.9102720  38.6369480  12.1854910  23.1938220
  37.3995200  12.8752480  23.7275710  43.8809560  28.4575310  26.2010180
  43.8936720  28.0537600  25.3332440  43.3284780  29.2322600  26.0971610
  45.1754980  25.1791530  21.2900350  45.0651310  24.2365860  21.4149770
  45.1723230  25.5407170  22.1763110  43.2795000  23.3605150  27.5292790
  43.6963790  23.1465260  26.6946250  44.0034820  23.6177940  28.1001410
  40.7175260  20.8056850  20.6462840  39.7904540  20.7394230  20.8751310
  40.8700080  21.7436980  20.5318080  40.7044340  17.0773850  17.6430000
  39.7648010  17.2387810  17.7282460  41.0227600  17.7959530  17.0965990
  47.2257100  21.7592370  27.6209030  46.3975730  21.8285460  27.1459160
  47.8207580  22.3446680  27.1524860  44.7472550  22.3677150  21.1498090
  44.1284970  22.0296700  20.5024390  44.7297000  21.7236910  21.8577280
  44.1899110  18.5461690  28.5663900  43.7770290  19.3715400  28.8203890
  43.4575060  17.9606730  28.3740260  36.3231900  21.3321590  23.4282570
  35.9188900  20.6198840  22.9328470  36.4095020  20.9874830  24.3170610
  36.7913600  25.0189150  25.5921780  36.4941890  24.4134620  24.9129560
  37.7413420  25.0566460  25.4811140  35.0360520  18.1064800  27.2081610
  35.5875110  18.2160140  26.4334860  35.5504030  18.4802400  27.9236840
  44.8799210  28.5921020  29.2544880  44.4029770  29.3993210  29.0617490
  44.1961000  27.9399350  29.4071090  42.9237250  21.6063960  18.1570840
  43.3630530  20.7686390  18.0108660  43.6365670  22.2393360  18.2434980
  34.7103250  21.6284160  30.8186950  34.5711020  22.5006960  31.1874350
  33.8284610  21.2856970  30.6734890  41.0332630  26.5460030  22.1252080
  41.4728540  27.2884360  21.7107470  40.9719520  26.7886600  23.0491040
  46.5054390  12.8606770  16.4711880  46.1927050  12.9533600  17.3710950
  47.2666860  13.4387800  16.4209310  33.0236530  20.2266570  20.9289220
  32.9034130  20.9528660  20.3170490  32.7137420  19.4569480  20.4517130
  48.4598420  28.3532960  34.3236270  48.9358140  28.8315850  35.0025350
  49.0805580  28.2850450  33.5981770  30.6621900  23.3981710  26.7357860
  30.7402320  23.5330480  25.7913580  31.2763580  22.6897600  26.9285980
  31.9069530  25.0981900  23.1464040  31.4997610  25.2396490  22.2917640
  32.7982540  24.8142060  22.9435250  47.8631670  25.5445810  31.4836280
  47.9894730  25.3057690  30.5653460  47.9053050  24.7130350  31.9558360
  41.7248410  29.2473810  30.0531090  42.2393080  29.1581820  30.8553520
  40.8817490  29.5933510  30.3459000  43.7002810  29.5329150  19.4815090
  43.5403950  29.2432090  20.3796920  43.5349520  28.7569280  18.9460320
  36.1791190  29.3127680  21.2586710  36.0033670  28.3963220  21.0454510
  35.3246930  29.6714970  21.4984510  43.4028940  27.0416710  18.0413090
  42.7094100  27.0394000  17.3815370  44.1451800  26.6176030  17.6107260
  42.9678870  28.6679420  22.1161580  43.4235820  27.8868800  22.4300200
  43.3071390  29.3786240  22.6602760  47.7155680  17.5978270  32.4486020
  47.0999950  18.1057940  31.9201480  47.3952100  16.6976600  32.3911960
  30.7181420  24.4395880  29.2752320  30.8812460  23.9701240  28.4571690
  31.1833870  23.9319440  29.9401160  35.4900190  13.5701640  24.3112890
  35.0468340  14.3511180  23.9797410  36.0485180  13.8931530  25.0183830
  39.7770000  16.4370160  29.9148210  39.3149370  16.6453180  30.7268150
  39.3748110  15.6229510  29.6118880  44.7774510  17.6579110  31.0444870
  43.9268100  17.3584860  31.3653940  44.6176300  17.9021120  30.1328690
  41.8724220  19.1580860  33.1443660  42.1977630  18.3244610  32.8045890
  42.6604550  19.6809380  33.2921990  38.6059010  13.1912340  19.1918720
  37.9813190  13.1872210  19.9172030  38.5189130  12.3243300  18.7954690
  37.5276090  14.1148970  26.1702490  37.8248420  15.0211800  26.0894510
  38.0761650  13.6267750  25.5562060  35.2814410  18.6935210  22.0394140
  35.0555330  18.4772380  22.9440760  34.5006940  19.1263670  21.6940110
  42.5112170  18.6998580  20.6384790  41.9121060  19.4234380  20.4548410
  43.0591780  18.6375360  19.8561240  37.7213620  19.5920790  32.7054410
  37.6257220  18.6515520  32.5554810  38.5645600  19.8135860  32.3102480
  41.1177040  17.3362120  22.6688070  41.5106610  17.6534320  21.8556760
  41.4793890  16.4574000  22.7832590  32.8524160  16.0034460  30.8588190
  32.4587550  16.8509670  31.0660970  32.1642560  15.3660830  31.0496830
  39.4269210  16.0869430  33.9284930  38.7367530  15.8941630  34.5631020
  40.1701510  16.3704070  34.4609230  30.1541210  13.9262920  24.8918270
  29.8654260  14.4965780  25.6043250  30.8986970  13.4467370  25.2549500
  30.3411440  17.8683040  16.1020990  30.2586110  18.8113800  16.2435980
  29.9894500  17.7257950  15.2233340  41.7032180  19.9267870  26.7638850
  40.9713300  20.4354680  27.1128950  41.3056520  19.1097850  26.4627630
  38.1409570  16.6022070  25.1691340  38.1445630  16.1612020  24.3195880
  39.0360690  16.9239400  25.2763160  33.9911950  16.4848560  24.1285550
  33.6512000  16.9623790  24.8852600  33.2289270  16.0313680  23.7686650
  38.2029720  17.6034150  18.1598100  38.3242540  17.5620630  19.1083920
  37.8178230  18.4658300  18.0044830  42.1658090  15.3801550  26.1761790
  42.1830830  15.8310200  27.0203640  41.9173670  14.4807190  26.3895230
  37.2151220  19.9135290  17.5581400  36.6468120  19.4653540  16.9317310
  37.9240220  20.2728070  17.0246550  45.5928840  12.7933730  32.0148170
  45.9174610  12.0623390  32.5406150  45.6285350  12.4747370  31.1129160
  32.2920400  23.8147310  31.4348130  31.9075190  23.1740980  32.0331090
  32.6032590  24.5183430  32.0042860  38.4417540  20.6623850  26.9156750
  38.8087670  20.1882420  27.6618090  38.2522600  21.5365420  27.2565090
  31.3058030  15.4067540  23.0450220  31.0204950  15.0423210  23.8828840
  31.2436890  14.6748000  22.4313360  36.2316910  19.7032490  29.2340960
  35.9273980  20.5824470  29.4591320  37.1863370  19.7632280  29.2698400
  34.7598700  23.9093480  19.8307810  33.9860960  23.3691100  19.6706530
  35.4893330  23.3900090  19.4925570  45.5186680  22.9058840  25.6234200
  46.2385800  23.4014130  25.2330310  45.3168500  22.2276730  24.9788070
  40.9796620  14.2996800  19.7663590  40.1661230  13.8009970  19.6908900
  40.7858570  15.1395050  19.3499940  40.9005480  22.9767900  31.5103200
  40.8342790  22.0563570  31.2560790  40.2710620  23.0743340  32.2247840
  43.6945010  18.6716450  18.0625750  44.5824630  18.9833680  17.8877090
  43.6650100  17.7988700  17.6706330  34.8036100  23.5773860  23.4686620
  35.3214770  22.7742120  23.4143510  34.3520120  23.5153000  24.3103450
  39.6905600  24.8440140  18.7413920  40.0321300  25.5882370  18.2457240
  38.8618310  25.1571260  19.1038750  32.2880640  20.5435230  30.3812320
  31.9295580  21.2089080  30.9685660  31.9935200  19.7118780  30.7524940
  35.4893760  21.0019470  33.2651870  35.1893900  21.1476650  32.3679690
  36.2605000  20.4424760  33.1725260  40.8322210  25.7988470  31.2607000
  40.8466750  24.8669430  31.0425910  40.1247310  25.8848230  31.8996770
  45.9659280  19.9828290  17.5305610  45.8823000  20.4142510  16.6802050
  46.6853470  20.4426640  17.9632430  47.0433420  22.4395810  30.6075580
  46.3181610  23.0324590  30.4104970  47.5708880  22.4319350  29.8088950
  46.9946530  26.8370550  20.2587740  46.3522690  26.1826170  20.5331460
  46.6077190  27.2425640  19.4828410  42.5733010  24.1655980  24.1059430
  42.9256830  23.5684110  23.4460800  41.6895340  23.8400210  24.2767680
  38.6596290  24.9253670  21.5129840  39.3467420  25.4722880  21.8937430
  37.8728710  25.4694400  21.5479450  30.7988690  20.5426490  17.0046920
  31.6683540  20.8251290  17.2882840  30.3079010  21.3562360  16.8895730
  37.9623500  21.9299700  21.1255200  38.4186280  22.7404950  21.3515390
  37.6111710  21.6122840  21.9573690  40.2656110  27.4406040  28.3547500
  40.9098330  27.6465420  29.0320920  40.6285550  26.6794440  27.9018350
  33.8635280  12.2737350  21.5977720  33.7349910  12.2655250  22.5462640
  33.0397300  12.6120440  21.2468730  41.5388190  25.4438390  27.0724950
  42.1810420  24.7431550  27.1857120  42.0637540  26.2236830  26.8921840
  45.3843910  25.7287010  16.7964090  45.1581490  25.0117450  17.3888730
  44.9940110  25.4799450  15.9585840  43.3125810  26.2433290  30.2761010
  43.6482050  26.8299980  30.9538930  42.3926150  26.1126000  30.5058800
  31.1659940  29.7553870  17.5708550  31.5257580  30.3543210  16.9165820
  31.0252280  30.3013760  18.3443580  30.8629210  14.0328470  31.0584420
  30.1487730  14.2325390  31.6637030  31.2824250  13.2568040  31.4299220
  44.9660160  23.6458950  18.4578250  44.6781860  24.1071640  19.2456130
  45.7612330  23.1856720  18.7262470  31.1501800  28.0208730  32.0450950
  31.2592920  27.0803470  31.9046340  30.4982360  28.2863480  31.3964680
  37.1828560  27.1385070  18.3882220  37.1738660  27.8714760  17.7726730
  36.2626920  26.8916650  18.4809180  32.7835200  22.3599960  19.1328980
  32.1763150  23.0998860  19.1424280  33.2584550  22.4499320  18.3067180
  42.3567990  16.5250780  28.8085870  42.7248810  15.7045990  29.1365440
  41.4966190  16.5852670  29.2241520  45.7230020  15.4807720  19.6173430
  45.0943180  15.5853390  18.9031660  45.2281940  15.7004500  20.4067310
  40.1688160  27.2013310  17.0507410  40.2700140  26.9977300  16.1209390
  39.2689900  26.9471590  17.2555190  37.6914050  17.7593670  21.0331310
  36.9830200  18.2280010  21.4744920  37.9758530  17.1015680  21.6676500
  39.3169980  19.1790370  29.0323840  39.8155230  19.6536190  29.6975690
  39.4592930  18.2553890  29.2393870  41.7229480  14.4844330  22.4727100
  41.5997260  14.5030460  21.5236610  42.6714040  14.5323270  22.5925500
  38.8106270  29.7199630  21.7455080  39.0647770  29.6821020  20.8234450
  37.8618750  29.5932960  21.7383330  35.8949070  16.0678750  18.4082020
  36.7439600  16.5048900  18.3422210  35.5280340  16.3799010  19.2354080
  46.5236840  15.3958330  29.8752230  46.0210440  16.1363730  30.2146040
  47.3393500  15.7842330  29.5589020  44.8158850  20.6391510  23.3213590
  43.8748990  20.6541740  23.4961280  45.1302920  19.8527470  23.7673890
  34.7940490  22.3211110  16.8817550  35.5603760  22.2092470  17.4442980
  34.8715180  21.6249080  16.2294320  33.4887250  19.7536180  17.5650440
  33.5690840  18.8063690  17.6767840  34.3807000  20.0843060  17.6711100
  46.8184430  27.8100360  24.9967850  46.9431850  28.6331530  25.4691660
  47.6849990  27.5991090  24.6492000  34.2901960  29.9031570  24.6684980
  35.0264440  29.3547030  24.9393550  34.6742880  30.7687580  24.5290970
  31.1747440  25.9705140  20.5426490  30.2487220  26.2126280  20.5331900
  31.6403870  26.7979400  20.4211240  37.4004270  29.0761880  16.4910550
  38.1932880  29.3650710  16.0392340  36.8808620  28.6454050  15.8123030
  43.5625240  28.9237800  32.4155380  44.5146990  28.8395820  32.3655620
  43.4153460  29.5879510  33.0889170  46.4534440  28.3032010  17.9147290
  46.1675950  27.8897150  17.1001470  46.2553990  29.2319720  17.7947810
  31.0158050  21.5751100  32.8006610  31.5197070  20.9958380  33.3722840
  30.2765470  21.8591330  33.3382980  37.9181670  24.2965290  16.3552900
  37.8132310  23.6817640  17.0814280  37.7505890  23.7731180  15.5715910
  41.1584400  23.3585320  16.9594890  40.6094500  23.8054620  17.6037630
  41.7803660  22.8534570  17.4832560  45.2119340  24.7127420  32.8917150
  45.9528810  25.0503180  32.3884610  44.4492020  24.8819480  32.3386920
  33.0481130  19.7180690  33.6956680  33.0886470  19.4194560  34.6041910
  33.9026630  20.1188300  33.5364200  36.8259520  22.3176240  18.8560190
  37.2475940  22.1516110  19.6991580  36.9510360  21.5076470  18.3615330
  34.9886940  18.2972790  31.6631170  34.4583400  17.8063740  31.0354510
  35.6575010  18.7256990  31.1289100  39.3387160  21.3413850  16.1037290
  39.8592820  20.6262870  15.7378440  39.9855560  21.9799720  16.4037800
  43.8865000  22.7642250  31.4272360  44.3006020  22.9187330  32.2762780
  42.9516000  22.8897470  31.5898140  44.3587170  20.1038410  33.4311510
  44.9407940  19.3490730  33.3431990  44.5348940  20.6345850  32.6542990
  35.4759240  15.2635160  31.7428460  35.3816110  14.6455910  31.0179330
  34.8956630  15.9901450  31.5158370  38.2420680  13.8208400  28.7755850
  37.7937980  13.8432660  27.9301400  37.6085880  13.4227420  29.3726150
  38.6480230  22.7162730  29.3968290  39.0668340  23.5595460  29.2244530
  37.7288860  22.8534770  29.1675070  40.9844130  20.4478910  30.7806130
  41.1040340  19.8520050  31.5200970  41.8438130  20.4848600  30.3607430
  43.3232030  21.0016100  29.3568640  42.7967250  21.5258720  28.7533780
  43.6663370  21.6343490  29.9878370  35.7218420  18.3909470  15.8018350
  35.5207480  17.5276830  16.1631690  35.5510470  18.3042830  14.8639950
  36.4987650  29.0215740  30.5126020  35.9608740  29.7461800  30.1934720
  36.7521610  28.5446080  29.7223360  37.7512900  16.9900260  32.0381950
  38.3412590  16.6816110  32.7259770  36.9333140  16.5180010  32.1941850
  42.5706330  16.6066070  32.2714970  41.8821850  15.9447610  32.2064960
  43.2912350  16.1604340  32.7163430  43.2006730  13.2017700  18.3305230
  43.4809020  12.3585600  18.6864650  42.4272460  13.4340810  18.8443980
  34.5201220  15.4910090  15.7896230  34.8227120  15.4977520  14.8815380
  35.2595810  15.1407950  16.2863890  39.3549860  30.2566950  30.7712670
  39.2808560  31.1602090  31.0785040  38.4528700  29.9378850  30.7434740
  37.7386150  14.4344710  16.7752430  37.3908150  13.7568700  16.1954880
  37.9398920  13.9734220  17.5895820  39.9035190  29.4225460  18.3939030
  40.7985980  29.7610430  18.4157790  39.9352820  28.7004870  17.7663310
  33.5431350  24.7952510  16.6226030  33.9806220  25.3382180  17.2783610
  34.0279080  23.9699460  16.6322370  30.7577150  27.5841540  24.0746290
  31.0880160  26.7162600  23.8424930  31.1868150  27.7900060  24.9051250
  35.3539070  25.9150550  21.7348260  35.0534610  25.7915520  22.6352170
  35.2476560  25.0559140  21.3263990  31.2467360  28.4512130  26.8127920
  30.8098350  28.6312930  27.6452070  31.8145040  29.2086750  26.6709640
  46.8829540  27.9529130  31.1005230  46.2831530  28.0121690  30.3569150
  47.0123440  27.0134110  31.2302080  48.1230990  25.6946950  16.4374940
  47.2923950  25.7623600  16.9082170  48.3002820  26.5851070  16.1341800
  47.5787450  22.4394430  18.9409140  48.3406360  23.0091080  19.0468830
  47.5941820  21.8721630  19.7117450  31.0791790  20.9632360  23.1716800
  30.4240630  20.6944000  22.5276500  31.9169740  20.8536840  22.7218780
  48.5847420  23.2944530  23.7851070  48.9556250  22.5111850  23.3787040
  49.2249350  23.9833630  23.6068370  45.5681180  24.6781110  29.1981390
  44.7541020  25.1078270  29.4607180  45.9755380  25.2899520  28.5850440
  47.6306620  22.7328800  16.0981660  47.9055460  23.6407680  15.9700880
  47.4417360  22.6691330  17.0343650  44.0282230  15.7573650  17.3935290
  44.4467110  15.5704630  16.5531950  43.7218290  14.9052700  17.7038220
  47.5271960  20.6697790  21.0911090  47.1515560  19.9025720  20.6592380
  46.7975080  21.0520490  21.5786020  32.1167720  21.3484930  27.7120140
  32.4840760  21.2612330  28.5916160  31.5478540  20.5851480  27.6127000
  46.9171580  19.8169310  30.7250610  46.6857670  19.5882060  29.8248560
  47.1776130  20.7368860  30.6795500  31.6683720  18.2594020  31.6178560
  30.7739770  18.2260780  31.9572270  32.2081270  18.4580810  32.3829810
  45.3559650  15.0425740  33.5030310  46.2329830  15.0509140  33.8864310
  45.3680490  14.3056580  32.8922660  30.2929870  18.1731290  19.1142130
  29.3893950  18.4361490  18.9393790  30.7770490  18.4442460  18.3342090
  46.8022920  18.8955280  24.3918330  47.3260400  18.4017930  23.7608500
  47.3882340  19.0305640  25.1365900  46.9812640  18.9795150  27.9137880
  46.0315350  18.9458690  28.0282870  47.1625650  19.8895260  27.6787650
  32.8357080  17.2296830  17.0236510  33.5448780  16.8080050  16.5383790
  32.1197020  17.2972060  16.3919860  32.4831240  13.2836160  16.0639160
  33.2059370  13.8245100  16.3820380  32.7555760  13.0099580  15.1880700
  46.2922890  18.1528630  20.3310740  46.7882010  17.9199500  21.1159620
  46.0938960  17.3140470  19.9148380  32.1723430  12.5342350  25.9661780
  32.8199620  11.9839730  25.5256940  32.5925270  12.7885500  26.7877590
  47.7210050  16.7889580  22.8648420  47.6109330  16.6345620  23.8030690
  48.4817640  16.2610520  22.6223830  46.0675770  12.7283710  29.3231420
  46.7047990  13.3417850  29.6890610  46.2150660  12.7644370  28.3780650
  48.6100320  14.6197500  16.1054560  49.5349630  14.4878680  15.8972850
  48.5876110  14.6990320  17.0591010  48.6838810  15.3908160  18.7311270
  47.8890310  15.3253280  19.2604180  48.8882090  16.3258800  18.7196620
  45.6257230  29.4299710  22.7249660  46.2216300  29.1084280  22.0484080
  45.8835380  28.9571530  23.5162930  31.9255430  12.6898020  28.7087100
  31.5770250  13.1461840  29.4745280  31.5943130  11.7955150  28.7909530
  33.5319800  25.8617620  32.8740290  33.4889430  25.4910530  33.7554750
  33.6630810  26.7995190  33.0142110  37.2325830  27.4177210  28.4750010
  36.9917190  27.6851770  27.5880530  38.1728470  27.5882940  28.5300870
  39.4380250  13.8809900  32.2306520  39.3769140  14.4731730  32.9801930
  40.3780630  13.7735860  32.0856780  42.0754810  13.5379960  31.8698810
  42.6895220  13.8559250  31.2079890  42.6204370  13.0528550  32.4894670
  48.4929990  29.4371590  29.2760650  47.9988270  29.8340460  28.5587780
  47.8843280  28.8120800  29.6697930  32.5976070  12.2174220  31.9837870
  33.1459060  12.0362270  31.2203980  32.6631380  11.4268330  32.5194180
  33.3707830  28.8079870  29.9938070  32.7768150  28.6764570  30.7328110
  33.3631670  27.9718010  29.5280170  42.8162850  12.1012100  28.1968100
  41.9422690  12.4347210  27.9941030  42.7073600  11.6285280  29.0219970
  43.7234830  14.3082970  29.5809820  43.3948190  13.4934730  29.2011550
  44.6717130  14.2652780  29.4575510  46.1769440  30.0795010  26.5547390
  45.7172410  30.8310820  26.1805410  45.5481900  29.3601480  26.4962190
  33.0020060  26.1738250  28.9446110  32.2754120  25.5543540  28.8772060
  33.0629210  26.5678860  28.0744190  36.6065160  28.3883250  25.7295520
  37.1230180  27.7770610  25.2043780  37.2562540  28.8912030  26.2206530
  39.3460660  29.2791740  26.5564500  39.6338470  29.0246040  25.6797510
  39.8583880  28.7269100  27.1470070  40.5637670  13.0181940  27.1361010
  39.7809460  13.4927440  27.4157770  40.2700600  12.1136770  27.0274190
  45.1158740  13.7205040  25.1810100  45.5566830  13.6650140  24.3331700
  44.8466330  14.6363050  25.2520280  46.9797310  13.3520280  23.1918920
  46.9185710  12.4081500  23.0449940  47.7589340  13.4600370  23.7372380
  31.2850060  29.4912640  22.1542870  31.1172100  28.8583320  22.8524760
  30.4184570  29.6972040  21.8037060  31.9078080  13.3229420  19.6574730
  32.6657440  13.4358300  19.0838760  31.4455250  14.1598620  19.6118160
  38.4491890  15.4368690  22.6477040  37.6366400  15.0625580  22.3072920
  38.9533530  14.6813770  22.9498230  42.9516870  12.1011140  23.8860110
  43.5546240  12.6731350  24.3608630  42.2109860  12.6650580  23.6634010
  46.0951470  12.5032700  19.1600390  46.2902100  13.4016150  19.4267820
  45.3081340  12.2719780  19.6533340  32.8912760  28.1845870  19.5993010
  32.3660380  28.5653900  18.8954970  32.8157340  28.8096640  20.3202720
  34.2803230  13.8493470  18.1976700  34.8095990  13.0623270  18.0684650
  34.9131550  14.5284660  18.4312230  36.4741070  13.5868610  21.2522090
  35.8443810  12.8855920  21.4192220  35.9346210  14.3472740  21.0355250
  47.6478080  29.7433410  20.9206950  47.8230270  29.0571150  20.2767870
  46.9499650  30.2680460  20.5283620  36.5996630  12.8652590  33.6874580
  36.3180900  13.3686190  32.9235400  36.9816330  12.0674340  33.3216710
  35.4905730  30.1328250  18.4742260  36.2224550  29.8487530  17.9266150
  35.7499400  29.8941530  19.3641640  34.6520520  26.2492980  18.4788590
  34.0229400  26.7178080  19.0274420  34.7668350  25.4042200  18.9134780
  43.2012090  12.2806170  34.2655050  43.0877540  12.6000780  35.1606570
  44.0181830  12.6818680  33.9692330  45.9810580  29.4277700  33.7473740
  46.7735900  28.9326930  33.5399700  46.2743730  30.1067840  34.3549350
  42.1070240  20.2998640   4.6289790  42.0264290  19.3853250   4.3581500
  41.6934660  20.7965710   3.9229500  40.2388280  22.0777660   6.5099060
  39.4630380  21.5978100   6.7997630  40.8901210  21.3983310   6.3355220
  34.2554110  22.3897470   7.3874820  33.4238990  22.1346180   7.7871330
  34.8635090  22.4608240   8.1232740  44.2595710  26.4837850   5.2898190
  43.7977240  25.7125090   5.6185360  45.0721260  26.5103920   5.7950640
  34.2355370  26.4237560   7.5832840  34.5383410  25.5335300   7.4043060
  34.9798960  26.9807780   7.3555090  30.6279070  19.9505010   7.0556910
  31.1995180  19.1827210   7.0560550  30.6280610  20.2493770   6.1463520
  40.4859020  28.7695860   4.9102180  39.8670460  29.2253360   4.3396620
  41.3410800  28.9247320   4.5091880  39.6797270  24.7534850   6.5169220
  39.6105550  23.8124790   6.3558350  40.4417130  24.8436260   7.0891790
  31.8703940  15.3589370   8.8425840  31.6906780  14.4615120   9.1228600
  31.4684020  15.9061240   9.5172790  40.7102440  17.5605230   6.7438150
  41.0867260  16.6877110   6.6311820  40.6121950  17.8963930   5.8528590
  34.8407450  15.9330860   2.2055590  34.9474200  16.8334590   2.5124350
  33.9299810  15.8848830   1.9150240  44.4926560  15.0555670   3.6766490
  45.3136180  14.5652240   3.7191970  44.5260640  15.6453330   4.4298330
  32.4890610  17.8549870   7.4508180  33.1700720  18.1188240   8.0695580
  32.1738660  17.0150740   7.7846190  36.6815180  18.9017230   6.5380770
  37.1893400  19.3998200   7.1785790  37.2128420  18.1252430   6.3620130
  48.7826110  17.0722420  10.2410120  48.0778280  17.4604130   9.7225230
  49.0484030  17.7672710  10.8431050  34.9651280  13.5415790  10.8044190
  34.9669720  14.0588180   9.9990090  34.1355590  13.0645970  10.7814120
  41.3522370  23.6535100   2.3034090  40.7339640  24.1184550   1.7396810
  41.8645620  24.3462580   2.7203600  36.2154130  23.1810970   8.9817690
  35.8823510  23.8079890   9.6238760  36.3920810  23.7072850   8.2019360
  44.7288040  16.9956050   6.4494030  44.0243610  17.2840940   7.0297140
  45.0900200  17.8056160   6.0893590  34.6466610  15.2525750   8.8114640
  34.9883420  16.0967800   8.5168510  33.7082420  15.4009490   8.9279980
  35.4273230  25.1491770  10.7966870  36.0447230  25.8242850  10.5151320
  34.5666350  25.5579750  10.7054370  46.3450820  26.6131180   8.7121510
  45.6614340  27.2830290   8.7038180  46.8845110  26.8111830   7.9466370
  47.7974960  16.4410840   6.8403240  46.8499870  16.4749820   6.9718670
  48.1224950  17.2549790   7.2252600  38.3294500  12.7408020   5.1359230
  38.6369480  12.1854910   4.4194730  37.3995200  12.8752480   4.9532220
  43.8809560  28.4575310   7.4266690  43.8936720  28.0537600   6.5588950
  43.3284780  29.2322600   7.3228120  45.1754980  25.1791530   2.5156860
  45.0651310  24.2365860   2.6406280  45.1723230  25.5407170   3.4019620
  43.2795000  23.3605150   8.7549300  43.6963790  23.1465260   7.9202760
  44.0034820  23.6177940   9.3257920  40.7175260  20.8056850   1.8719350
  39.7904540  20.7394230   2.1007820  40.8700080  21.7436980   1.7574590
  47.2257100  21.7592370   8.8465540  46.3975730  21.8285460   8.3715670
  47.8207580  22.3446680   8.3781370  44.7472550  22.3677150   2.3754600
  44.1284970  22.0296700   1.7280900  44.7297000  21.7236910   3.0833790
  44.1899110  18.5461690   9.7920410  43.7770290  19.3715400  10.0460400
  43.4575060  17.9606730   9.5996770  36.3231900  21.3321590   4.6539080
  35.9188900  20.6198840   4.1584980  36.4095020  20.9874830   5.5427120
  36.7913600  25.0189150   6.8178290  36.4941890  24.4134620   6.1386070
  37.7413420  25.0566460   6.7067650  35.0360520  18.1064800   8.4338120
  35.5875110  18.2160140   7.6591370  35.5504030  18.4802400   9.1493350
  44.8799210  28.5921020  10.4801390  44.4029770  29.3993210  10.2874000
  44.1961000  27.9399350  10.6327600  35.8832030  24.7570840  13.4686090
  34.9860560  24.9810810  13.7159490  35.9084900  24.8805780  12.5197490
  34.7103250  21.6284160  12.0443460  34.5711020  22.5006960  12.4130860
  33.8284610  21.2856970  11.8991400  41.0332630  26.5460030   3.3508590
  41.4728540  27.2884360   2.9363980  40.9719520  26.7886600   4.2747550
  36.5083600  27.5705860  14.2528610  36.4799030  27.9748810  13.3857040
  36.3448570  26.6416220  14.0900210  33.0236530  20.2266570   2.1545730
  32.9034130  20.9528660   1.5427000  32.7137420  19.4569480   1.6773640
  48.4598420  28.3532960  15.5492780  48.9358140  28.8315850  16.2281860
  49.0805580  28.2850450  14.8238280  30.6621900  23.3981710   7.9614370
  30.7402320  23.5330480   7.0170090  31.2763580  22.6897600   8.1542490
  31.9069530  25.0981900   4.3720550  31.4997610  25.2396490   3.5174150
  32.7982540  24.8142060   4.1691760  47.8631670  25.5445810  12.7092790
  47.9894730  25.3057690  11.7909970  47.9053050  24.7130350  13.1814870
  41.7248410  29.2473810  11.2787600  42.2393080  29.1581820  12.0810030
  40.8817490  29.5933510  11.5715510  36.1791190  29.3127680   2.4843220
  36.0033670  28.3963220   2.2711020  35.3246930  29.6714970   2.7241020
  42.9678870  28.6679420   3.3418090  43.4235820  27.8868800   3.6556710
  43.3071390  29.3786240   3.8859270  47.7155680  17.5978270  13.6742530
  47.0999950  18.1057940  13.1457990  47.3952100  16.6976600  13.6168470
  30.7181420  24.4395880  10.5008830  30.8812460  23.9701240   9.6828200
  31.1833870  23.9319440  11.1657670  35.4900190  13.5701640   5.5369400
  35.0468340  14.3511180   5.2053920  36.0485180  13.8931530   6.2440340
  39.7770000  16.4370160  11.1404720  39.3149370  16.6453180  11.9524660
  39.3748110  15.6229510  10.8375390  44.7774510  17.6579110  12.2701380
  43.9268100  17.3584860  12.5910450  44.6176300  17.9021120  11.3585200
  41.8724220  19.1580860  14.3700170  42.1977630  18.3244610  14.0302400
  42.6604550  19.6809380  14.5178500  37.5276090  14.1148970   7.3959000
  37.8248420  15.0211800   7.3151020  38.0761650  13.6267750   6.7818570
  35.2814410  18.6935210   3.2650650  35.0555330  18.4772380   4.1697270
  34.5006940  19.1263670   2.9196620  37.7213620  19.5920790  13.9310920
  37.6257220  18.6515520  13.7811320  38.5645600  19.8135860  13.5358990
  41.1177040  17.3362120   3.8944580  41.5106610  17.6534320   3.0813270
  41.4793890  16.4574000   4.0089100  32.8524160  16.0034460  12.0844700
  32.4587550  16.8509670  12.2917480  32.1642560  15.3660830  12.2753340
  39.4269210  16.0869430  15.1541440  38.7367530  15.8941630  15.7887530
  40.1701510  16.3704070  15.6865740  30.1541210  13.9262920   6.1174780
  29.8654260  14.4965780   6.8299760  30.8986970  13.4467370   6.4806010
  41.7032180  19.9267870   7.9895360  40.9713300  20.4354680   8.3385460
  41.3056520  19.1097850   7.6884140  38.1409570  16.6022070   6.3947850
  38.1445630  16.1612020   5.5452390  39.0360690  16.9239400   6.5019670
  33.9911950  16.4848560   5.3542060  33.6512000  16.9623790   6.1109110
  33.2289270  16.0313680   4.9943160  42.1658090  15.3801550   7.4018300
  42.1830830  15.8310200   8.2460150  41.9173670  14.4807190   7.6151740
  45.5928840  12.7933730  13.2404680  45.9174610  12.0623390  13.7662660
  45.6285350  12.4747370  12.3385670  32.2920400  23.8147310  12.6604640
  31.9075190  23.1740980  13.2587600  32.6032590  24.5183430  13.2299370
  38.4417540  20.6623850   8.1413260  38.8087670  20.1882420   8.8874600
  38.2522600  21.5365420   8.4821600  31.3058030  15.4067540   4.2706730
  31.0204950  15.0423210   5.1085350  31.2436890  14.6748000   3.6569870
  36.2316910  19.7032490  10.4597470  35.9273980  20.5824470  10.6847830
  37.1863370  19.7632280  10.4954910  45.5186680  22.9058840   6.8490710
  46.2385800  23.4014130   6.4586820  45.3168500  22.2276730   6.2044580
  40.9005480  22.9767900  12.7359710  40.8342790  22.0563570  12.4817300
  40.2710620  23.0743340  13.4504350  34.8036100  23.5773860   4.6943130
  35.3214770  22.7742120   4.6400020  34.3520120  23.5153000   5.5359960
  32.2880640  20.5435230  11.6068830  31.9295580  21.2089080  12.1942170
  31.9935200  19.7118780  11.9781450  35.4893760  21.0019470  14.4908380
  35.1893900  21.1476650  13.5936200  36.2605000  20.4424760  14.3981770
  40.8322210  25.7988470  12.4863510  40.8466750  24.8669430  12.2682420
  40.1247310  25.8848230  13.1253280  47.0433420  22.4395810  11.8332090
  46.3181610  23.0324590  11.6361480  47.5708880  22.4319350  11.0345460
  42.5733010  24.1655980   5.3315940  42.9256830  23.5684110   4.6717310
  41.6895340  23.8400210   5.5024190  38.6596290  24.9253670   2.7386350
  39.3467420  25.4722880   3.1193940  37.8728710  25.4694400   2.7735960
  37.9623500  21.9299700   2.3511710  38.4186280  22.7404950   2.5771900
  37.6111710  21.6122840   3.1830200  40.2656110  27.4406040   9.5804010
  40.9098330  27.6465420  10.2577430  40.6285550  26.6794440   9.1274860
  33.8635280  12.2737350   2.8234230  33.7349910  12.2655250   3.7719150
  33.0397300  12.6120440   2.4725240  41.5388190  25.4438390   8.2981460
  42.1810420  24.7431550   8.4113630  42.0637540  26.2236830   8.1178350
  43.3125810  26.2433290  11.5017520  43.6482050  26.8299980  12.1795440
  42.3926150  26.1126000  11.7315310  30.8629210  14.0328470  12.2840930
  30.1487730  14.2325390  12.8893540  31.2824250  13.2568040  12.6555730
  31.1501800  28.0208730  13.2707460  31.2592920  27.0803470  13.1302850
  30.4982360  28.2863480  12.6221190  39.1414390  26.2924620  14.6705580
  38.8211260  25.5733860  15.2151270  38.4672750  26.9679690  14.7441640
  42.3567990  16.5250780  10.0342380  42.7248810  15.7045990  10.3621950
  41.4966190  16.5852670  10.4498030  37.6914050  17.7593670   2.2587820
  36.9830200  18.2280010   2.7001430  37.9758530  17.1015680   2.8933010
  39.3169980  19.1790370  10.2580350  39.8155230  19.6536190  10.9232200
  39.4592930  18.2553890  10.4650380  41.7229480  14.4844330   3.6983610
  41.5997260  14.5030460   2.7493120  42.6714040  14.5323270   3.8182010
  38.8106270  29.7199630   2.9711590  39.0647770  29.6821020   2.0490960
  37.8618750  29.5932960   2.9639840  46.5236840  15.3958330  11.1008740
  46.0210440  16.1363730  11.4402550  47.3393500  15.7842330  10.7845530
  44.8158850  20.6391510   4.5470100  43.8748990  20.6541740   4.7217790
  45.1302920  19.8527470   4.9930400  46.8184430  27.8100360   6.2224360
  46.9431850  28.6331530   6.6948170  47.6849990  27.5991090   5.8748510
  34.2901960  29.9031570   5.8941490  35.0264440  29.3547030   6.1650060
  34.6742880  30.7687580   5.7547480  31.1747440  25.9705140   1.7683000
  30.2487220  26.2126280   1.7588410  31.6403870  26.7979400   1.6467750
  33.2960240  29.0877640  15.0827070  34.0972970  29.4089690  15.4962470
  32.7812060  28.7273220  15.8046980  42.1324870  25.1957510  15.0302480
  41.5263030  25.2189110  14.2898230  41.8278980  24.4640550  15.5669730
  43.5625240  28.9237800  13.6411890  44.5146990  28.8395820  13.5912130
  43.4153460  29.5879510  14.3145680  31.0158050  21.5751100  14.0263120
  31.5197070  20.9958380  14.5979350  30.2765470  21.8591330  14.5639490
  38.0695990  22.9822090  13.5598640  37.3041660  23.5507090  13.4753310
  38.2511950  22.6898300  12.6666870  45.2119340  24.7127420  14.1173660
  45.9528810  25.0503180  13.6141120  44.4492020  24.8819480  13.5643430
  33.0481130  19.7180690  14.9213190  33.0886470  19.4194560  15.8298420
  33.9026630  20.1188300  14.7620710  34.9886940  18.2972790  12.8887680
  34.4583400  17.8063740  12.2611020  35.6575010  18.7256990  12.3545610
  43.8865000  22.7642250  12.6528870  44.3006020  22.9187330  13.5019290
  42.9516000  22.8897470  12.8154650  44.3587170  20.1038410  14.6568020
  44.9407940  19.3490730  14.5688500  44.5348940  20.6345850  13.8799500
  35.4759240  15.2635160  12.9684970  35.3816110  14.6455910  12.2435840
  34.8956630  15.9901450  12.7414880  38.2420680  13.8208400  10.0012360
  37.7937980  13.8432660   9.1557910  37.6085880  13.4227420  10.5982660
  38.6480230  22.7162730  10.6224800  39.0668340  23.5595460  10.4501040
  37.7288860  22.8534770  10.3931580  40.9844130  20.4478910  12.0062640
  41.1040340  19.8520050  12.7457480  41.8438130  20.4848600  11.5863940
  43.3232030  21.0016100  10.5825150  42.7967250  21.5258720   9.9790290
  43.6663370  21.6343490  11.2134880  36.4987650  29.0215740  11.7382530
  35.9608740  29.7461800  11.4191230  36.7521610  28.5446080  10.9479870
  37.7512900  16.9900260  13.2638460  38.3412590  16.6816110  13.9516280
  36.9333140  16.5180010  13.4198360  42.5706330  16.6066070  13.4971480
  41.8821850  15.9447610  13.4321470  43.2912350  16.1604340  13.9419940
  39.3549860  30.2566950  11.9969180  39.2808560  31.1602090  12.3041550
  38.4528700  29.9378850  11.9691250  30.7577150  27.5841540   5.3002800
  31.0880160  26.7162600   5.0681440  31.1868150  27.7900060   6.1307760
  35.3539070  25.9150550   2.9604770  35.0534610  25.7915520   3.8608680
  35.2476560  25.0559140   2.5520500  31.2467360  28.4512130   8.0384430
  30.8098350  28.6312930   8.8708580  31.8145040  29.2086750   7.8966150
  46.8829540  27.9529130  12.3261740  46.2831530  28.0121690  11.5825660
  47.0123440  27.0134110  12.4558590  31.0791790  20.9632360   4.3973310
  30.4240630  20.6944000   3.7533010  31.9169740  20.8536840   3.9475290
  48.5847420  23.2944530   5.0107580  48.9556250  22.5111850   4.6043550
  49.2249350  23.9833630   4.8324880  45.5681180  24.6781110  10.4237900
  44.7541020  25.1078270  10.6863690  45.9755380  25.2899520   9.8106950
  47.5271960  20.6697790   2.3167600  47.1515560  19.9025720   1.8848890
  46.7975080  21.0520490   2.8042530  32.1167720  21.3484930   8.9376650
  32.4840760  21.2612330   9.8172670  31.5478540  20.5851480   8.8383510
  46.9171580  19.8169310  11.9507120  46.6857670  19.5882060  11.0505070
  47.1776130  20.7368860  11.9052010  31.6683720  18.2594020  12.8435070
  30.7739770  18.2260780  13.1828780  32.2081270  18.4580810  13.6086320
  45.3559650  15.0425740  14.7286820  46.2329830  15.0509140  15.1120820
  45.3680490  14.3056580  14.1179170  46.8022920  18.8955280   5.6174840
  47.3260400  18.4017930   4.9865010  47.3882340  19.0305640   6.3622410
  46.9812640  18.9795150   9.1394390  46.0315350  18.9458690   9.2539380
  47.1625650  19.8895260   8.9044160  32.1723430  12.5342350   7.1918290
  32.8199620  11.9839730   6.7513450  32.5925270  12.7885500   8.0134100
  47.7210050  16.7889580   4.0904930  47.6109330  16.6345620   5.0287200
  48.4817640  16.2610520   3.8480340  46.0675770  12.7283710  10.5487930
  46.7047990  13.3417850  10.9147120  46.2150660  12.7644370   9.6037160
  45.6257230  29.4299710   3.9506170  46.2216300  29.1084280   3.2740590
  45.8835380  28.9571530   4.7419440  31.9255430  12.6898020   9.9343610
  31.5770250  13.1461840  10.7001790  31.5943130  11.7955150  10.0166040
  33.5319800  25.8617620  14.0996800  33.4889430  25.4910530  14.9811260
  33.6630810  26.7995190  14.2398620  37.2325830  27.4177210   9.7006520
  36.9917190  27.6851770   8.8137040  38.1728470  27.5882940   9.7557380
  39.4380250  13.8809900  13.4563030  39.3769140  14.4731730  14.2058440
  40.3780630  13.7735860  13.3113290  42.0754810  13.5379960  13.0955320
  42.6895220  13.8559250  12.4336400  42.6204370  13.0528550  13.7151180
  48.4929990  29.4371590  10.5017160  47.9988270  29.8340460   9.7844290
  47.8843280  28.8120800  10.8954440  32.5976070  12.2174220  13.2094380
  33.1459060  12.0362270  12.4460490  32.6631380  11.4268330  13.7450690
  33.3707830  28.8079870  11.2194580  32.7768150  28.6764570  11.9584620
  33.3631670  27.9718010  10.7536680  42.8162850  12.1012100   9.4224610
  41.9422690  12.4347210   9.2197540  42.7073600  11.6285280  10.2476480
  43.7234830  14.3082970  10.8066330  43.3948190  13.4934730  10.4268060
  44.6717130  14.2652780  10.6832020  46.1769440  30.0795010   7.7803900
  45.7172410  30.8310820   7.4061920  45.5481900  29.3601480   7.7218700
  33.0020060  26.1738250  10.1702620  32.2754120  25.5543540  10.1028570
  33.0629210  26.5678860   9.3000700  36.6065160  28.3883250   6.9552030
  37.1230180  27.7770610   6.4300290  37.2562540  28.8912030   7.4463040
  39.3460660  29.2791740   7.7821010  39.6338470  29.0246040   6.9054020
  39.8583880  28.7269100   8.3726580  40.5637670  13.0181940   8.3617520
  39.7809460  13.4927440   8.6414280  40.2700600  12.1136770   8.2530700
  45.1158740  13.7205040   6.4066610  45.5566830  13.6650140   5.5588210
  44.8466330  14.6363050   6.4776790  46.9797310  13.3520280   4.4175430
  46.9185710  12.4081500   4.2706450  47.7589340  13.4600370   4.9628890
  31.2850060  29.4912640   3.3799380  31.1172100  28.8583320   4.0781270
  30.4184570  29.6972040   3.0293570  38.4491890  15.4368690   3.8733550
  37.6366400  15.0625580   3.5329430  38.9533530  14.6813770   4.1754740
  42.9516870  12.1011140   5.1116620  43.5546240  12.6731350   5.5865140
  42.2109860  12.6650580   4.8890520  36.4741070  13.5868610   2.4778600
  35.8443810  12.8855920   2.6448730  35.9346210  14.3472740   2.2611760
  39.4133020  30.2007840  15.1489210  40.3400330  29.9652110  15.1925170
  39.3983450  31.0279840  14.6675240  47.6478080  29.7433410   2.1463460
  47.8230270  29.0571150   1.5024380  46.9499650  30.2680460   1.7540130
  36.5996630  12.8652590  14.9131090  36.3180900  13.3686190  14.1491910
  36.9816330  12.0674340  14.5473220  43.2012090  12.2806170  15.4911560
  43.0877540  12.6000780  16.3863080  44.0181830  12.6818680  15.1948840
  45.9810580  29.4277700  14.9730250  46.7735900  28.9326930  14.7656210
  46.2743730  30.1067840  15.5805860  40.2388280   3.3034170  81.6073020
  39.4630380   2.8234610  81.8971590  40.8901210   2.6239820  81.4329180
  34.2554110   3.6153980  82.4848780  33.4238990   3.3602690  82.8845290
  34.8635090   3.6864750  83.2206700  44.2595710   7.7094360  80.3872150
  43.7977240   6.9381600  80.7159320  45.0721260   7.7360430  80.8924600
  34.2355370   7.6494070  82.6806800  34.5383410   6.7591810  82.5017020
  34.9798960   8.2064290  82.4529050  40.4859020   9.9952370  80.0076140
  39.8670460  10.4509870  79.4370580  41.3410800  10.1503830  79.6065840
  39.6797270   5.9791360  81.6143180  39.6105550   5.0381300  81.4532310
  40.4417130   6.0692770  82.1865750  41.3522370   4.8791610  77.4008050
  40.7339640   5.3441060  76.8370770  41.8645620   5.5719090  77.8177560
  36.2154130   4.4067480  84.0791650  35.8823510   5.0336400  84.7212720
  36.3920810   4.9329360  83.2993320  35.4273230   6.3748280  85.8940830
  36.0447230   7.0499360  85.6125280  34.5666350   6.7836260  85.8028330
  30.7205570   5.5648140  74.7747680  30.3433550   6.0535240  74.0432580
  30.9778640   6.2373420  75.4054210  46.3450820   7.8387690  83.8095470
  45.6614340   8.5086800  83.8012140  46.8845110   8.0368340  83.0440330
  43.8809560   9.6831820  82.5240650  43.8936720   9.2794110  81.6562910
  43.3284780  10.4579110  82.4202080  45.1754980   6.4048040  77.6130820
  45.0651310   5.4622370  77.7380240  45.1723230   6.7663680  78.4993580
  43.2795000   4.5861660  83.8523260  43.6963790   4.3721770  83.0176720
  44.0034820   4.8434450  84.4231880  40.7175260   2.0313360  76.9693310
  39.7904540   1.9650740  77.1981780  40.8700080   2.9693490  76.8548550
  47.2257100   2.9848880  83.9439500  46.3975730   3.0541970  83.4689630
  47.8207580   3.5703190  83.4755330  44.7472550   3.5933660  77.4728560
  44.1284970   3.2553210  76.8254860  44.7297000   2.9493420  78.1807750
  36.3231900   2.5578100  79.7513040  35.9188900   1.8455350  79.2558940
  36.4095020   2.2131340  80.6401080  36.7913600   6.2445660  81.9152250
  36.4941890   5.6391130  81.2360030  37.7413420   6.2822970  81.8041610
  44.8799210   9.8177530  85.5775350  44.4029770  10.6249720  85.3847960
  44.1961000   9.1655860  85.7301560  42.9237250   2.8320470  74.4801310
  43.3630530   1.9942900  74.3339130  43.6365670   3.4649870  74.5665450
  41.0332630   7.7716540  78.4482550  41.4728540   8.5140870  78.0337940
  40.9719520   8.0143110  79.3721510  30.6621900   4.6238220  83.0588330
  30.7402320   4.7586990  82.1144050  31.2763580   3.9154110  83.2516450
  31.9069530   6.3238410  79.4694510  31.4997610   6.4653000  78.6148110
  32.7982540   6.0398570  79.2665720  43.7002810  10.7585660  75.8045560
  43.5403950  10.4688600  76.7027390  43.5349520   9.9825790  75.2690790
  36.1791190  10.5384190  77.5817180  36.0033670   9.6219730  77.3684980
  35.3246930  10.8971480  77.8214980  43.4028940   8.2673220  74.3643560
  42.7094100   8.2650510  73.7045840  44.1451800   7.8432540  73.9337730
  42.9678870   9.8935930  78.4392050  43.4235820   9.1125310  78.7530670
  43.3071390  10.6042750  78.9833230  30.7181420   5.6652390  85.5982790
  30.8812460   5.1957750  84.7802160  31.1833870   5.1575950  86.2631630
  34.7598700   5.1349990  76.1538280  33.9860960   4.5947610  75.9937000
  35.4893330   4.6156600  75.8156040  45.5186680   4.1315350  81.9464670
  46.2385800   4.6270640  81.5560780  45.3168500   3.4533240  81.3018540
  34.8036100   4.8030370  79.7917090  35.3214770   3.9998630  79.7373980
  34.3520120   4.7409510  80.6333920  39.6905600   6.0696650  75.0644390
  40.0321300   6.8138880  74.5687710  38.8618310   6.3827770  75.4269220
  46.9946530   8.0627060  76.5818210  46.3522690   7.4082680  76.8561930
  46.6077190   8.4682150  75.8058880  42.5733010   5.3912490  80.4289900
  42.9256830   4.7940620  79.7691270  41.6895340   5.0656720  80.5998150
  38.6596290   6.1510180  77.8360310  39.3467420   6.6979390  78.2167900
  37.8728710   6.6950910  77.8709920  30.7988690   1.7683000  73.3277390
  31.6683540   2.0507800  73.6113310  30.3079010   2.5818870  73.2126200
  37.9623500   3.1556210  77.4485670  38.4186280   3.9661460  77.6745860
  37.6111710   2.8379350  78.2804160  40.2656110   8.6662550  84.6777970
  40.9098330   8.8721930  85.3551390  40.6285550   7.9050950  84.2248820
  41.5388190   6.6694900  83.3955420  42.1810420   5.9688060  83.5087590
  42.0637540   7.4493340  83.2152310  45.3843910   6.9543520  73.1194560
  45.1581490   6.2373960  73.7119200  44.9940110   6.7055960  72.2816310
  31.1659940  10.9810380  73.8939020  31.5257580  11.5799720  73.2396290
  31.0252280  11.5270270  74.6674050  44.9660160   4.8715460  74.7808720
  44.6781860   5.3328150  75.5686600  45.7612330   4.4113230  75.0492940
  37.1828560   8.3641580  74.7112690  37.1738660   9.0971270  74.0957200
  36.2626920   8.1173160  74.8039650  32.7835200   3.5856470  75.4559450
  32.1763150   4.3255370  75.4654750  33.2584550   3.6755830  74.6297650
  40.1688160   8.4269820  73.3737880  40.2700140   8.2233810  72.4439860
  39.2689900   8.1728100  73.5785660  38.8106270  10.9456140  78.0685550
  39.0647770  10.9077530  77.1464920  37.8618750  10.8189470  78.0613800
  34.7940490   3.5467620  73.2048020  35.5603760   3.4348980  73.7673450
  34.8715180   2.8505590  72.5524790  46.8184430   9.0356870  81.3198320
  46.9431850   9.8588040  81.7922130  47.6849990   8.8247600  80.9722470
  34.2901960  11.1288080  80.9915450  35.0264440  10.5803540  81.2624020
  34.6742880  11.9944090  80.8521440  31.1747440   7.1961650  76.8656960
  30.2487220   7.4382790  76.8562370  31.6403870   8.0235910  76.7441710
  37.4004270  10.3018390  72.8141020  38.1932880  10.5907220  72.3622810
  36.8808620   9.8710560  72.1353500  46.4534440   9.5288520  74.2377760
  46.1675950   9.1153660  73.4231940  46.2553990  10.4576230  74.1178280
  37.9181670   5.5221800  72.6783370  37.8132310   4.9074150  73.4044750
  37.7505890   4.9987690  71.8946380  41.1584400   4.5841830  73.2825360
  40.6094500   5.0311130  73.9268100  41.7803660   4.0791080  73.8063030
  36.8259520   3.5432750  75.1790660  37.2475940   3.3772620  76.0222050
  36.9510360   2.7332980  74.6845800  39.3387160   2.5670360  72.4267760
  39.8592820   1.8519380  72.0608910  39.9855560   3.2056230  72.7268270
  38.6480230   3.9419240  85.7198760  39.0668340   4.7851970  85.5475000
  37.7288860   4.0791280  85.4905540  39.9035190  10.6481970  74.7169500
  40.7985980  10.9866940  74.7388260  39.9352820   9.9261380  74.0893780
  33.5431350   6.0209020  72.9456500  33.9806220   6.5638690  73.6014080
  34.0279080   5.1955970  72.9552840  30.7577150   8.8098050  80.3976760
  31.0880160   7.9419110  80.1655400  31.1868150   9.0156570  81.2281720
  35.3539070   7.1407060  78.0578730  35.0534610   7.0172030  78.9582640
  35.2476560   6.2815650  77.6494460  31.2467360   9.6768640  83.1358390
  30.8098350   9.8569440  83.9682540  31.8145040  10.4343260  82.9940110
  48.1230990   6.9203460  72.7605410  47.2923950   6.9880110  73.2312640
  48.3002820   7.8107580  72.4572270  47.5787450   3.6650940  75.2639610
  48.3406360   4.2347590  75.3699300  47.5941820   3.0978140  76.0347920
  31.0791790   2.1888870  79.4947270  30.4240630   1.9200510  78.8506970
  31.9169740   2.0793350  79.0449250  48.5847420   4.5201040  80.1081540
  48.9556250   3.7368360  79.7017510  49.2249350   5.2090140  79.9298840
  45.5681180   5.9037620  85.5211860  44.7541020   6.3334780  85.7837650
  45.9755380   6.5156030  84.9080910  47.6306620   3.9585310  72.4212130
  47.9055460   4.8664190  72.2931350  47.4417360   3.8947840  73.3574120
  32.1167720   2.5741440  84.0350610  32.4840760   2.4868840  84.9146630
  31.5478540   1.8107990  83.9357470  45.6257230  10.6556220  79.0480130
  46.2216300  10.3340790  78.3714550  45.8835380  10.1828040  79.8393400
  37.2325830   8.6433720  84.7980480  36.9917190   8.9108280  83.9111000
  38.1728470   8.8139450  84.8531340  48.4929990  10.6628100  85.5991120
  47.9988270  11.0596970  84.8818250  47.8843280  10.0377310  85.9928400
  46.1769440  11.3051520  82.8777860  45.7172410  12.0567330  82.5035880
  45.5481900  10.5857990  82.8192660  33.0020060   7.3994760  85.2676580
  32.2754120   6.7800050  85.2002530  33.0629210   7.7935370  84.3974660
  36.6065160   9.6139760  82.0525990  37.1230180   9.0027120  81.5274250
  37.2562540  10.1168540  82.5437000  39.3460660  10.5048250  82.8794970
  39.6338470  10.2502550  82.0027980  39.8583880   9.9525610  83.4700540
  31.2850060  10.7169150  78.4773340  31.1172100  10.0839830  79.1755230
  30.4184570  10.9228550  78.1267530  32.8912760   9.4102380  75.9223480
  32.3660380   9.7910410  75.2185440  32.8157340  10.0353150  76.6433190
  47.6478080  10.9689920  77.2437420  47.8230270  10.2827660  76.5998340
  46.9499650  11.4936970  76.8514090  35.4905730  11.3584760  74.7972730
  36.2224550  11.0744040  74.2496620  35.7499400  11.1198040  75.6872110
  34.6520520   7.4749490  74.8019060  34.0229400   7.9434590  75.3504890
  34.7668350   6.6298710  75.2365250  40.2388280   3.3034170  62.8329530
  39.4630380   2.8234610  63.1228100  40.8901210   2.6239820  62.6585690
  34.2554110   3.6153980  63.7105290  33.4238990   3.3602690  64.1101800
  34.8635090   3.6864750  64.4463210  44.2595710   7.7094360  61.6128660
  43.7977240   6.9381600  61.9415830  45.0721260   7.7360430  62.1181110
  34.2355370   7.6494070  63.9063310  34.5383410   6.7591810  63.7273530
  34.9798960   8.2064290  63.6785560  40.4859020   9.9952370  61.2332650
  39.8670460  10.4509870  60.6627090  41.3410800  10.1503830  60.8322350
  39.6797270   5.9791360  62.8399690  39.6105550   5.0381300  62.6788820
  40.4417130   6.0692770  63.4122260  41.3522370   4.8791610  58.6264560
  40.7339640   5.3441060  58.0627280  41.8645620   5.5719090  59.0434070
  36.2154130   4.4067480  65.3048160  35.8823510   5.0336400  65.9469230
  36.3920810   4.9329360  64.5249830  35.4273230   6.3748280  67.1197340
  36.0447230   7.0499360  66.8381790  34.5666350   6.7836260  67.0284840
  30.7205570   5.5648140  56.0004190  30.3433550   6.0535240  55.2689090
  30.9778640   6.2373420  56.6310720  46.3450820   7.8387690  65.0351980
  45.6614340   8.5086800  65.0268650  46.8845110   8.0368340  64.2696840
  43.8809560   9.6831820  63.7497160  43.8936720   9.2794110  62.8819420
  43.3284780  10.4579110  63.6458590  45.1754980   6.4048040  58.8387330
  45.0651310   5.4622370  58.9636750  45.1723230   6.7663680  59.7250090
  43.2795000   4.5861660  65.0779770  43.6963790   4.3721770  64.2433230
  44.0034820   4.8434450  65.6488390  40.7175260   2.0313360  58.1949820
  39.7904540   1.9650740  58.4238290  40.8700080   2.9693490  58.0805060
  47.2257100   2.9848880  65.1696010  46.3975730   3.0541970  64.6946140
  47.8207580   3.5703190  64.7011840  44.7472550   3.5933660  58.6985070
  44.1284970   3.2553210  58.0511370  44.7297000   2.9493420  59.4064260
  36.3231900   2.5578100  60.9769550  35.9188900   1.8455350  60.4815450
  36.4095020   2.2131340  61.8657590  36.7913600   6.2445660  63.1408760
  36.4941890   5.6391130  62.4616540  37.7413420   6.2822970  63.0298120
  44.8799210   9.8177530  66.8031860  44.4029770  10.6249720  66.6104470
  44.1961000   9.1655860  66.9558070  35.8832030   5.9827350  69.7916560
  34.9860560   6.2067320  70.0389960  35.9084900   6.1062290  68.8427960
  42.9237250   2.8320470  55.7057820  43.3630530   1.9942900  55.5595640
  43.6365670   3.4649870  55.7921960  34.7103250   2.8540670  68.3673930
  34.5711020   3.7263470  68.7361330  33.8284610   2.5113480  68.2221870
  41.0332630   7.7716540  59.6739060  41.4728540   8.5140870  59.2594450
  40.9719520   8.0143110  60.5978020  36.5083600   8.7962370  70.5759080
  36.4799030   9.2005320  69.7087510  36.3448570   7.8672730  70.4130680
  48.4598420   9.5789470  71.8723250  48.9358140  10.0572360  72.5512330
  49.0805580   9.5106960  71.1468750  30.6621900   4.6238220  64.2844840
  30.7402320   4.7586990  63.3400560  31.2763580   3.9154110  64.4772960
  31.9069530   6.3238410  60.6951020  31.4997610   6.4653000  59.8404620
  32.7982540   6.0398570  60.4922230  47.8631670   6.7702320  69.0323260
  47.9894730   6.5314200  68.1140440  47.9053050   5.9386860  69.5045340
  41.7248410  10.4730320  67.6018070  42.2393080  10.3838330  68.4040500
  40.8817490  10.8190020  67.8945980  43.7002810  10.7585660  57.0302070
  43.5403950  10.4688600  57.9283900  43.5349520   9.9825790  56.4947300
  36.1791190  10.5384190  58.8073690  36.0033670   9.6219730  58.5941490
  35.3246930  10.8971480  59.0471490  43.4028940   8.2673220  55.5900070
  42.7094100   8.2650510  54.9302350  44.1451800   7.8432540  55.1594240
  42.9678870   9.8935930  59.6648560  43.4235820   9.1125310  59.9787180
  43.3071390  10.6042750  60.2089740  30.7181420   5.6652390  66.8239300
  30.8812460   5.1957750  66.0058670  31.1833870   5.1575950  67.4888140
  32.2920400   5.0403820  68.9835110  31.9075190   4.3997490  69.5818070
  32.6032590   5.7439940  69.5529840  34.7598700   5.1349990  57.3794790
  33.9860960   4.5947610  57.2193510  35.4893330   4.6156600  57.0412550
  45.5186680   4.1315350  63.1721180  46.2385800   4.6270640  62.7817290
  45.3168500   3.4533240  62.5275050  40.9005480   4.2024410  69.0590180
  40.8342790   3.2820080  68.8047770  40.2710620   4.2999850  69.7734820
  34.8036100   4.8030370  61.0173600  35.3214770   3.9998630  60.9630490
  34.3520120   4.7409510  61.8590430  39.6905600   6.0696650  56.2900900
  40.0321300   6.8138880  55.7944220  38.8618310   6.3827770  56.6525730
  35.4893760   2.2275980  70.8138850  35.1893900   2.3733160  69.9166670
  36.2605000   1.6681270  70.7212240  40.8322210   7.0244980  68.8093980
  40.8466750   6.0925940  68.5912890  40.1247310   7.1104740  69.4483750
  47.0433420   3.6652320  68.1562560  46.3181610   4.2581100  67.9591950
  47.5708880   3.6575860  67.3575930  46.9946530   8.0627060  57.8074720
  46.3522690   7.4082680  58.0818440  46.6077190   8.4682150  57.0315390
  42.5733010   5.3912490  61.6546410  42.9256830   4.7940620  60.9947780
  41.6895340   5.0656720  61.8254660  38.6596290   6.1510180  59.0616820
  39.3467420   6.6979390  59.4424410  37.8728710   6.6950910  59.0966430
  30.7988690   1.7683000  54.5533900  31.6683540   2.0507800  54.8369820
  30.3079010   2.5818870  54.4382710  37.9623500   3.1556210  58.6742180
  38.4186280   3.9661460  58.9002370  37.6111710   2.8379350  59.5060670
  40.2656110   8.6662550  65.9034480  40.9098330   8.8721930  66.5807900
  40.6285550   7.9050950  65.4505330  41.5388190   6.6694900  64.6211930
  42.1810420   5.9688060  64.7344100  42.0637540   7.4493340  64.4408820
  45.3843910   6.9543520  54.3451070  45.1581490   6.2373960  54.9375710
  44.9940110   6.7055960  53.5072820  43.3125810   7.4689800  67.8247990
  43.6482050   8.0556490  68.5025910  42.3926150   7.3382510  68.0545780
  31.1659940  10.9810380  55.1195530  31.5257580  11.5799720  54.4652800
  31.0252280  11.5270270  55.8930560  44.9660160   4.8715460  56.0065230
  44.6781860   5.3328150  56.7943110  45.7612330   4.4113230  56.2749450
  31.1501800   9.2465240  69.5937930  31.2592920   8.3059980  69.4533320
  30.4982360   9.5119990  68.9451660  39.1414390   7.5181130  70.9936050
  38.8211260   6.7990370  71.5381740  38.4672750   8.1936200  71.0672110
  37.1828560   8.3641580  55.9369200  37.1738660   9.0971270  55.3213710
  36.2626920   8.1173160  56.0296160  32.7835200   3.5856470  56.6815960
  32.1763150   4.3255370  56.6911260  33.2584550   3.6755830  55.8554160
  40.1688160   8.4269820  54.5994390  40.2700140   8.2233810  53.6696370
  39.2689900   8.1728100  54.8042170  38.8106270  10.9456140  59.2942060
  39.0647770  10.9077530  58.3721430  37.8618750  10.8189470  59.2870310
  34.7940490   3.5467620  54.4304530  35.5603760   3.4348980  54.9929960
  34.8715180   2.8505590  53.7781300  46.8184430   9.0356870  62.5454830
  46.9431850   9.8588040  63.0178640  47.6849990   8.8247600  62.1978980
  34.2901960  11.1288080  62.2171960  35.0264440  10.5803540  62.4880530
  34.6742880  11.9944090  62.0777950  31.1747440   7.1961650  58.0913470
  30.2487220   7.4382790  58.0818880  31.6403870   8.0235910  57.9698220
  33.2960240  10.3134150  71.4057540  34.0972970  10.6346200  71.8192940
  32.7812060   9.9529730  72.1277450  37.4004270  10.3018390  54.0397530
  38.1932880  10.5907220  53.5879320  36.8808620   9.8710560  53.3610010
  42.1324870   6.4214020  71.3532950  41.5263030   6.4445620  70.6128700
  41.8278980   5.6897060  71.8900200  43.5625240  10.1494310  69.9642360
  44.5146990  10.0652330  69.9142600  43.4153460  10.8136020  70.6376150
  46.4534440   9.5288520  55.4634270  46.1675950   9.1153660  54.6488450
  46.2553990  10.4576230  55.3434790  31.0158050   2.8007610  70.3493590
  31.5197070   2.2214890  70.9209820  30.2765470   3.0847840  70.8869960
  37.9181670   5.5221800  53.9039880  37.8132310   4.9074150  54.6301260
  37.7505890   4.9987690  53.1202890  38.0695990   4.2078600  69.8829110
  37.3041660   4.7763600  69.7983780  38.2511950   3.9154810  68.9897340
  41.1584400   4.5841830  54.5081870  40.6094500   5.0311130  55.1524610
  41.7803660   4.0791080  55.0319540  45.2119340   5.9383930  70.4404130
  45.9528810   6.2759690  69.9371590  44.4492020   6.1075990  69.8873900
  36.8259520   3.5432750  56.4047170  37.2475940   3.3772620  57.2478560
  36.9510360   2.7332980  55.9102310  39.3387160   2.5670360  53.6524270
  39.8592820   1.8519380  53.2865420  39.9855560   3.2056230  53.9524780
  43.8865000   3.9898760  68.9759340  44.3006020   4.1443840  69.8249760
  42.9516000   4.1153980  69.1385120  38.6480230   3.9419240  66.9455270
  39.0668340   4.7851970  66.7731510  37.7288860   4.0791280  66.7162050
  43.3232030   2.2272610  66.9055620  42.7967250   2.7515230  66.3020760
  43.6663370   2.8600000  67.5365350  36.4987650  10.2472250  68.0613000
  35.9608740  10.9718310  67.7421700  36.7521610   9.7702590  67.2710340
  39.3549860  11.4823460  68.3199650  39.2808560  12.3858600  68.6272020
  38.4528700  11.1635360  68.2921720  39.9035190  10.6481970  55.9426010
  40.7985980  10.9866940  55.9644770  39.9352820   9.9261380  55.3150290
  33.5431350   6.0209020  54.1713010  33.9806220   6.5638690  54.8270590
  34.0279080   5.1955970  54.1809350  30.7577150   8.8098050  61.6233270
  31.0880160   7.9419110  61.3911910  31.1868150   9.0156570  62.4538230
  35.3539070   7.1407060  59.2835240  35.0534610   7.0172030  60.1839150
  35.2476560   6.2815650  58.8750970  31.2467360   9.6768640  64.3614900
  30.8098350   9.8569440  65.1939050  31.8145040  10.4343260  64.2196620
  46.8829540   9.1785640  68.6492210  46.2831530   9.2378200  67.9056130
  47.0123440   8.2390620  68.7789060  48.1230990   6.9203460  53.9861920
  47.2923950   6.9880110  54.4569150  48.3002820   7.8107580  53.6828780
  47.5787450   3.6650940  56.4896120  48.3406360   4.2347590  56.5955810
  47.5941820   3.0978140  57.2604430  31.0791790   2.1888870  60.7203780
  30.4240630   1.9200510  60.0763480  31.9169740   2.0793350  60.2705760
  48.5847420   4.5201040  61.3338050  48.9556250   3.7368360  60.9274020
  49.2249350   5.2090140  61.1555350  45.5681180   5.9037620  66.7468370
  44.7541020   6.3334780  67.0094160  45.9755380   6.5156030  66.1337420
  47.6306620   3.9585310  53.6468640  47.9055460   4.8664190  53.5187860
  47.4417360   3.8947840  54.5830630  32.1167720   2.5741440  65.2607120
  32.4840760   2.4868840  66.1403140  31.5478540   1.8107990  65.1613980
  45.6257230  10.6556220  60.2736640  46.2216300  10.3340790  59.5971060
  45.8835380  10.1828040  61.0649910  33.5319800   7.0874130  70.4227270
  33.4889430   6.7167040  71.3041730  33.6630810   8.0251700  70.5629090
  37.2325830   8.6433720  66.0236990  36.9917190   8.9108280  65.1367510
  38.1728470   8.8139450  66.0787850  48.4929990  10.6628100  66.8247630
  47.9988270  11.0596970  66.1074760  47.8843280  10.0377310  67.2184910
  33.3707830  10.0336380  67.5425050  32.7768150   9.9021080  68.2815090
  33.3631670   9.1974520  67.0767150  46.1769440  11.3051520  64.1034370
  45.7172410  12.0567330  63.7292390  45.5481900  10.5857990  64.0449170
  33.0020060   7.3994760  66.4933090  32.2754120   6.7800050  66.4259040
  33.0629210   7.7935370  65.6231170  36.6065160   9.6139760  63.2782500
  37.1230180   9.0027120  62.7530760  37.2562540  10.1168540  63.7693510
  39.3460660  10.5048250  64.1051480  39.6338470  10.2502550  63.2284490
  39.8583880   9.9525610  64.6957050  31.2850060  10.7169150  59.7029850
  31.1172100  10.0839830  60.4011740  30.4184570  10.9228550  59.3524040
  32.8912760   9.4102380  57.1479990  32.3660380   9.7910410  56.4441950
  32.8157340  10.0353150  57.8689700  39.4133020  11.4264350  71.4719680
  40.3400330  11.1908620  71.5155640  39.3983450  12.2536350  70.9905710
  47.6478080  10.9689920  58.4693930  47.8230270  10.2827660  57.8254850
  46.9499650  11.4936970  58.0770600  35.4905730  11.3584760  56.0229240
  36.2224550  11.0744040  55.4753130  35.7499400  11.1198040  56.9128620
  34.6520520   7.4749490  56.0275570  34.0229400   7.9434590  56.5761400
  34.7668350   6.6298710  56.4621760  45.9810580  10.6534210  71.2960720
  46.7735900  10.1583440  71.0886680  46.2743730  11.3324350  71.9036330
  40.2388280   3.3034170  44.0586040  39.4630380   2.8234610  44.3484610
  40.8901210   2.6239820  43.8842200  34.2554110   3.6153980  44.9361800
  33.4238990   3.3602690  45.3358310  34.8635090   3.6864750  45.6719720
  44.2595710   7.7094360  42.8385170  43.7977240   6.9381600  43.1672340
  45.0721260   7.7360430  43.3437620  34.2355370   7.6494070  45.1319820
  34.5383410   6.7591810  44.9530040  34.9798960   8.2064290  44.9042070
  40.4859020   9.9952370  42.4589160  39.8670460  10.4509870  41.8883600
  41.3410800  10.1503830  42.0578860  39.6797270   5.9791360  44.0656200
  39.6105550   5.0381300  43.9045330  40.4417130   6.0692770  44.6378770
  41.3522370   4.8791610  39.8521070  40.7339640   5.3441060  39.2883790
  41.8645620   5.5719090  40.2690580  36.2154130   4.4067480  46.5304670
  35.8823510   5.0336400  47.1725740  36.3920810   4.9329360  45.7506340
  35.4273230   6.3748280  48.3453850  36.0447230   7.0499360  48.0638300
  34.5666350   6.7836260  48.2541350  30.7205570   5.5648140  37.2260700
  30.3433550   6.0535240  36.4945600  30.9778640   6.2373420  37.8567230
  46.3450820   7.8387690  46.2608490  45.6614340   8.5086800  46.2525160
  46.8845110   8.0368340  45.4953350  43.8809560   9.6831820  44.9753670
  43.8936720   9.2794110  44.1075930  43.3284780  10.4579110  44.8715100
  45.1754980   6.4048040  40.0643840  45.0651310   5.4622370  40.1893260
  45.1723230   6.7663680  40.9506600  43.2795000   4.5861660  46.3036280
  43.6963790   4.3721770  45.4689740  44.0034820   4.8434450  46.8744900
  40.7175260   2.0313360  39.4206330  39.7904540   1.9650740  39.6494800
  40.8700080   2.9693490  39.3061570  47.2257100   2.9848880  46.3952520
  46.3975730   3.0541970  45.9202650  47.8207580   3.5703190  45.9268350
  44.7472550   3.5933660  39.9241580  44.1284970   3.2553210  39.2767880
  44.7297000   2.9493420  40.6320770  36.3231900   2.5578100  42.2026060
  35.9188900   1.8455350  41.7071960  36.4095020   2.2131340  43.0914100
  36.7913600   6.2445660  44.3665270  36.4941890   5.6391130  43.6873050
  37.7413420   6.2822970  44.2554630  44.8799210   9.8177530  48.0288370
  44.4029770  10.6249720  47.8360980  44.1961000   9.1655860  48.1814580
  35.8832030   5.9827350  51.0173070  34.9860560   6.2067320  51.2646470
  35.9084900   6.1062290  50.0684470  42.9237250   2.8320470  36.9314330
  43.3630530   1.9942900  36.7852150  43.6365670   3.4649870  37.0178470
  34.7103250   2.8540670  49.5930440  34.5711020   3.7263470  49.9617840
  33.8284610   2.5113480  49.4478380  41.0332630   7.7716540  40.8995570
  41.4728540   8.5140870  40.4850960  40.9719520   8.0143110  41.8234530
  36.5083600   8.7962370  51.8015590  36.4799030   9.2005320  50.9344020
  36.3448570   7.8672730  51.6387190  48.4598420   9.5789470  53.0979760
  48.9358140  10.0572360  53.7768840  49.0805580   9.5106960  52.3725260
  30.6621900   4.6238220  45.5101350  30.7402320   4.7586990  44.5657070
  31.2763580   3.9154110  45.7029470  31.9069530   6.3238410  41.9207530
  31.4997610   6.4653000  41.0661130  32.7982540   6.0398570  41.7178740
  47.8631670   6.7702320  50.2579770  47.9894730   6.5314200  49.3396950
  47.9053050   5.9386860  50.7301850  41.7248410  10.4730320  48.8274580
  42.2393080  10.3838330  49.6297010  40.8817490  10.8190020  49.1202490
  43.7002810  10.7585660  38.2558580  43.5403950  10.4688600  39.1540410
  43.5349520   9.9825790  37.7203810  36.1791190  10.5384190  40.0330200
  36.0033670   9.6219730  39.8198000  35.3246930  10.8971480  40.2728000
  43.4028940   8.2673220  36.8156580  42.7094100   8.2650510  36.1558860
  44.1451800   7.8432540  36.3850750  42.9678870   9.8935930  40.8905070
  43.4235820   9.1125310  41.2043690  43.3071390  10.6042750  41.4346250
  30.7181420   5.6652390  48.0495810  30.8812460   5.1957750  47.2315180
  31.1833870   5.1575950  48.7144650  32.2920400   5.0403820  50.2091620
  31.9075190   4.3997490  50.8074580  32.6032590   5.7439940  50.7786350
  34.7598700   5.1349990  38.6051300  33.9860960   4.5947610  38.4450020
  35.4893330   4.6156600  38.2669060  45.5186680   4.1315350  44.3977690
  46.2385800   4.6270640  44.0073800  45.3168500   3.4533240  43.7531560
  40.9005480   4.2024410  50.2846690  40.8342790   3.2820080  50.0304280
  40.2710620   4.2999850  50.9991330  34.8036100   4.8030370  42.2430110
  35.3214770   3.9998630  42.1887000  34.3520120   4.7409510  43.0846940
  39.6905600   6.0696650  37.5157410  40.0321300   6.8138880  37.0200730
  38.8618310   6.3827770  37.8782240  35.4893760   2.2275980  52.0395360
  35.1893900   2.3733160  51.1423180  36.2605000   1.6681270  51.9468750
  40.8322210   7.0244980  50.0350490  40.8466750   6.0925940  49.8169400
  40.1247310   7.1104740  50.6740260  47.0433420   3.6652320  49.3819070
  46.3181610   4.2581100  49.1848460  47.5708880   3.6575860  48.5832440
  46.9946530   8.0627060  39.0331230  46.3522690   7.4082680  39.3074950
  46.6077190   8.4682150  38.2571900  42.5733010   5.3912490  42.8802920
  42.9256830   4.7940620  42.2204290  41.6895340   5.0656720  43.0511170
  38.6596290   6.1510180  40.2873330  39.3467420   6.6979390  40.6680920
  37.8728710   6.6950910  40.3222940  30.7988690   1.7683000  35.7790410
  31.6683540   2.0507800  36.0626330  30.3079010   2.5818870  35.6639220
  37.9623500   3.1556210  39.8998690  38.4186280   3.9661460  40.1258880
  37.6111710   2.8379350  40.7317180  40.2656110   8.6662550  47.1290990
  40.9098330   8.8721930  47.8064410  40.6285550   7.9050950  46.6761840
  41.5388190   6.6694900  45.8468440  42.1810420   5.9688060  45.9600610
  42.0637540   7.4493340  45.6665330  45.3843910   6.9543520  35.5707580
  45.1581490   6.2373960  36.1632220  44.9940110   6.7055960  34.7329330
  43.3125810   7.4689800  49.0504500  43.6482050   8.0556490  49.7282420
  42.3926150   7.3382510  49.2802290  31.1659940  10.9810380  36.3452040
  31.5257580  11.5799720  35.6909310  31.0252280  11.5270270  37.1187070
  44.9660160   4.8715460  37.2321740  44.6781860   5.3328150  38.0199620
  45.7612330   4.4113230  37.5005960  31.1501800   9.2465240  50.8194440
  31.2592920   8.3059980  50.6789830  30.4982360   9.5119990  50.1708170
  39.1414390   7.5181130  52.2192560  38.8211260   6.7990370  52.7638250
  38.4672750   8.1936200  52.2928620  37.1828560   8.3641580  37.1625710
  37.1738660   9.0971270  36.5470220  36.2626920   8.1173160  37.2552670
  32.7835200   3.5856470  37.9072470  32.1763150   4.3255370  37.9167770
  33.2584550   3.6755830  37.0810670  40.1688160   8.4269820  35.8250900
  40.2700140   8.2233810  34.8952880  39.2689900   8.1728100  36.0298680
  38.8106270  10.9456140  40.5198570  39.0647770  10.9077530  39.5977940
  37.8618750  10.8189470  40.5126820  34.7940490   3.5467620  35.6561040
  35.5603760   3.4348980  36.2186470  34.8715180   2.8505590  35.0037810
  46.8184430   9.0356870  43.7711340  46.9431850   9.8588040  44.2435150
  47.6849990   8.8247600  43.4235490  34.2901960  11.1288080  43.4428470
  35.0264440  10.5803540  43.7137040  34.6742880  11.9944090  43.3034460
  31.1747440   7.1961650  39.3169980  30.2487220   7.4382790  39.3075390
  31.6403870   8.0235910  39.1954730  33.2960240  10.3134150  52.6314050
  34.0972970  10.6346200  53.0449450  32.7812060   9.9529730  53.3533960
  37.4004270  10.3018390  35.2654040  38.1932880  10.5907220  34.8135830
  36.8808620   9.8710560  34.5866520  42.1324870   6.4214020  52.5789460
  41.5263030   6.4445620  51.8385210  41.8278980   5.6897060  53.1156710
  43.5625240  10.1494310  51.1898870  44.5146990  10.0652330  51.1399110
  43.4153460  10.8136020  51.8632660  46.4534440   9.5288520  36.6890780
  46.1675950   9.1153660  35.8744960  46.2553990  10.4576230  36.5691300
  31.0158050   2.8007610  51.5750100  31.5197070   2.2214890  52.1466330
  30.2765470   3.0847840  52.1126470  37.9181670   5.5221800  35.1296390
  37.8132310   4.9074150  35.8557770  37.7505890   4.9987690  34.3459400
  38.0695990   4.2078600  51.1085620  37.3041660   4.7763600  51.0240290
  38.2511950   3.9154810  50.2153850  41.1584400   4.5841830  35.7338380
  40.6094500   5.0311130  36.3781120  41.7803660   4.0791080  36.2576050
  45.2119340   5.9383930  51.6660640  45.9528810   6.2759690  51.1628100
  44.4492020   6.1075990  51.1130410  36.8259520   3.5432750  37.6303680
  37.2475940   3.3772620  38.4735070  36.9510360   2.7332980  37.1358820
  39.3387160   2.5670360  34.8780780  39.8592820   1.8519380  34.5121930
  39.9855560   3.2056230  35.1781290  43.8865000   3.9898760  50.2015850
  44.3006020   4.1443840  51.0506270  42.9516000   4.1153980  50.3641630
  38.6480230   3.9419240  48.1711780  39.0668340   4.7851970  47.9988020
  37.7288860   4.0791280  47.9418560  43.3232030   2.2272610  48.1312130
  42.7967250   2.7515230  47.5277270  43.6663370   2.8600000  48.7621860
  36.4987650  10.2472250  49.2869510  35.9608740  10.9718310  48.9678210
  36.7521610   9.7702590  48.4966850  39.3549860  11.4823460  49.5456160
  39.2808560  12.3858600  49.8528530  38.4528700  11.1635360  49.5178230
  39.9035190  10.6481970  37.1682520  40.7985980  10.9866940  37.1901280
  39.9352820   9.9261380  36.5406800  33.5431350   6.0209020  35.3969520
  33.9806220   6.5638690  36.0527100  34.0279080   5.1955970  35.4065860
  30.7577150   8.8098050  42.8489780  31.0880160   7.9419110  42.6168420
  31.1868150   9.0156570  43.6794740  35.3539070   7.1407060  40.5091750
  35.0534610   7.0172030  41.4095660  35.2476560   6.2815650  40.1007480
  31.2467360   9.6768640  45.5871410  30.8098350   9.8569440  46.4195560
  31.8145040  10.4343260  45.4453130  46.8829540   9.1785640  49.8748720
  46.2831530   9.2378200  49.1312640  47.0123440   8.2390620  50.0045570
  48.1230990   6.9203460  35.2118430  47.2923950   6.9880110  35.6825660
  48.3002820   7.8107580  34.9085290  47.5787450   3.6650940  37.7152630
  48.3406360   4.2347590  37.8212320  47.5941820   3.0978140  38.4860940
  31.0791790   2.1888870  41.9460290  30.4240630   1.9200510  41.3019990
  31.9169740   2.0793350  41.4962270  48.5847420   4.5201040  42.5594560
  48.9556250   3.7368360  42.1530530  49.2249350   5.2090140  42.3811860
  45.5681180   5.9037620  47.9724880  44.7541020   6.3334780  48.2350670
  45.9755380   6.5156030  47.3593930  47.6306620   3.9585310  34.8725150
  47.9055460   4.8664190  34.7444370  47.4417360   3.8947840  35.8087140
  32.1167720   2.5741440  46.4863630  32.4840760   2.4868840  47.3659650
  31.5478540   1.8107990  46.3870490  45.6257230  10.6556220  41.4993150
  46.2216300  10.3340790  40.8227570  45.8835380  10.1828040  42.2906420
  33.5319800   7.0874130  51.6483780  33.4889430   6.7167040  52.5298240
  33.6630810   8.0251700  51.7885600  37.2325830   8.6433720  47.2493500
  36.9917190   8.9108280  46.3624020  38.1728470   8.8139450  47.3044360
  48.4929990  10.6628100  48.0504140  47.9988270  11.0596970  47.3331270
  47.8843280  10.0377310  48.4441420  33.3707830  10.0336380  48.7681560
  32.7768150   9.9021080  49.5071600  33.3631670   9.1974520  48.3023660
  46.1769440  11.3051520  45.3290880  45.7172410  12.0567330  44.9548900
  45.5481900  10.5857990  45.2705680  33.0020060   7.3994760  47.7189600
  32.2754120   6.7800050  47.6515550  33.0629210   7.7935370  46.8487680
  36.6065160   9.6139760  44.5039010  37.1230180   9.0027120  43.9787270
  37.2562540  10.1168540  44.9950020  39.3460660  10.5048250  45.3307990
  39.6338470  10.2502550  44.4541000  39.8583880   9.9525610  45.9213560
  31.2850060  10.7169150  40.9286360  31.1172100  10.0839830  41.6268250
  30.4184570  10.9228550  40.5780550  32.8912760   9.4102380  38.3736500
  32.3660380   9.7910410  37.6698460  32.8157340  10.0353150  39.0946210
  39.4133020  11.4264350  52.6976190  40.3400330  11.1908620  52.7412150
  39.3983450  12.2536350  52.2162220  47.6478080  10.9689920  39.6950440
  47.8230270  10.2827660  39.0511360  46.9499650  11.4936970  39.3027110
  35.4905730  11.3584760  37.2485750  36.2224550  11.0744040  36.7009640
  35.7499400  11.1198040  38.1385130  34.6520520   7.4749490  37.2532080
  34.0229400   7.9434590  37.8017910  34.7668350   6.6298710  37.6878270
  45.9810580  10.6534210  52.5217230  46.7735900  10.1583440  52.3143190
  46.2743730  11.3324350  53.1292840  40.2388280   3.3034170  25.2842550
  39.4630380   2.8234610  25.5741120  40.8901210   2.6239820  25.1098710
  34.2554110   3.6153980  26.1618310  33.4238990   3.3602690  26.5614820
  34.8635090   3.6864750  26.8976230  44.2595710   7.7094360  24.0641680
  43.7977240   6.9381600  24.3928850  45.0721260   7.7360430  24.5694130
  34.2355370   7.6494070  26.3576330  34.5383410   6.7591810  26.1786550
  34.9798960   8.2064290  26.1298580  40.4859020   9.9952370  23.6845670
  39.8670460  10.4509870  23.1140110  41.3410800  10.1503830  23.2835370
  39.6797270   5.9791360  25.2912710  39.6105550   5.0381300  25.1301840
  40.4417130   6.0692770  25.8635280  41.3522370   4.8791610  21.0777580
  40.7339640   5.3441060  20.5140300  41.8645620   5.5719090  21.4947090
  36.2154130   4.4067480  27.7561180  35.8823510   5.0336400  28.3982250
  36.3920810   4.9329360  26.9762850  35.4273230   6.3748280  29.5710360
  36.0447230   7.0499360  29.2894810  34.5666350   6.7836260  29.4797860
  30.7205570   5.5648140  18.4517210  30.3433550   6.0535240  17.7202110
  30.9778640   6.2373420  19.0823740  46.3450820   7.8387690  27.4865000
  45.6614340   8.5086800  27.4781670  46.8845110   8.0368340  26.7209860
  43.8809560   9.6831820  26.2010180  43.8936720   9.2794110  25.3332440
  43.3284780  10.4579110  26.0971610  45.1754980   6.4048040  21.2900350
  45.0651310   5.4622370  21.4149770  45.1723230   6.7663680  22.1763110
  43.2795000   4.5861660  27.5292790  43.6963790   4.3721770  26.6946250
  44.0034820   4.8434450  28.1001410  40.7175260   2.0313360  20.6462840
  39.7904540   1.9650740  20.8751310  40.8700080   2.9693490  20.5318080
  47.2257100   2.9848880  27.6209030  46.3975730   3.0541970  27.1459160
  47.8207580   3.5703190  27.1524860  44.7472550   3.5933660  21.1498090
  44.1284970   3.2553210  20.5024390  44.7297000   2.9493420  21.8577280
  36.3231900   2.5578100  23.4282570  35.9188900   1.8455350  22.9328470
  36.4095020   2.2131340  24.3170610  36.7913600   6.2445660  25.5921780
  36.4941890   5.6391130  24.9129560  37.7413420   6.2822970  25.4811140
  44.8799210   9.8177530  29.2544880  44.4029770  10.6249720  29.0617490
  44.1961000   9.1655860  29.4071090  35.8832030   5.9827350  32.2429580
  34.9860560   6.2067320  32.4902980  35.9084900   6.1062290  31.2940980
  42.9237250   2.8320470  18.1570840  43.3630530   1.9942900  18.0108660
  43.6365670   3.4649870  18.2434980  34.7103250   2.8540670  30.8186950
  34.5711020   3.7263470  31.1874350  33.8284610   2.5113480  30.6734890
  41.0332630   7.7716540  22.1252080  41.4728540   8.5140870  21.7107470
  40.9719520   8.0143110  23.0491040  36.5083600   8.7962370  33.0272100
  36.4799030   9.2005320  32.1600530  36.3448570   7.8672730  32.8643700
  48.4598420   9.5789470  34.3236270  48.9358140  10.0572360  35.0025350
  49.0805580   9.5106960  33.5981770  30.6621900   4.6238220  26.7357860
  30.7402320   4.7586990  25.7913580  31.2763580   3.9154110  26.9285980
  31.9069530   6.3238410  23.1464040  31.4997610   6.4653000  22.2917640
  32.7982540   6.0398570  22.9435250  47.8631670   6.7702320  31.4836280
  47.9894730   6.5314200  30.5653460  47.9053050   5.9386860  31.9558360
  41.7248410  10.4730320  30.0531090  42.2393080  10.3838330  30.8553520
  40.8817490  10.8190020  30.3459000  43.7002810  10.7585660  19.4815090
  43.5403950  10.4688600  20.3796920  43.5349520   9.9825790  18.9460320
  36.1791190  10.5384190  21.2586710  36.0033670   9.6219730  21.0454510
  35.3246930  10.8971480  21.4984510  43.4028940   8.2673220  18.0413090
  42.7094100   8.2650510  17.3815370  44.1451800   7.8432540  17.6107260
  42.9678870   9.8935930  22.1161580  43.4235820   9.1125310  22.4300200
  43.3071390  10.6042750  22.6602760  30.7181420   5.6652390  29.2752320
  30.8812460   5.1957750  28.4571690  31.1833870   5.1575950  29.9401160
  32.2920400   5.0403820  31.4348130  31.9075190   4.3997490  32.0331090
  32.6032590   5.7439940  32.0042860  34.7598700   5.1349990  19.8307810
  33.9860960   4.5947610  19.6706530  35.4893330   4.6156600  19.4925570
  45.5186680   4.1315350  25.6234200  46.2385800   4.6270640  25.2330310
  45.3168500   3.4533240  24.9788070  40.9005480   4.2024410  31.5103200
  40.8342790   3.2820080  31.2560790  40.2710620   4.2999850  32.2247840
  34.8036100   4.8030370  23.4686620  35.3214770   3.9998630  23.4143510
  34.3520120   4.7409510  24.3103450  39.6905600   6.0696650  18.7413920
  40.0321300   6.8138880  18.2457240  38.8618310   6.3827770  19.1038750
  35.4893760   2.2275980  33.2651870  35.1893900   2.3733160  32.3679690
  36.2605000   1.6681270  33.1725260  40.8322210   7.0244980  31.2607000
  40.8466750   6.0925940  31.0425910  40.1247310   7.1104740  31.8996770
  47.0433420   3.6652320  30.6075580  46.3181610   4.2581100  30.4104970
  47.5708880   3.6575860  29.8088950  46.9946530   8.0627060  20.2587740
  46.3522690   7.4082680  20.5331460  46.6077190   8.4682150  19.4828410
  42.5733010   5.3912490  24.1059430  42.9256830   4.7940620  23.4460800
  41.6895340   5.0656720  24.2767680  38.6596290   6.1510180  21.5129840
  39.3467420   6.6979390  21.8937430  37.8728710   6.6950910  21.5479450
  30.7988690   1.7683000  17.0046920  31.6683540   2.0507800  17.2882840
  30.3079010   2.5818870  16.8895730  37.9623500   3.1556210  21.1255200
  38.4186280   3.9661460  21.3515390  37.6111710   2.8379350  21.9573690
  40.2656110   8.6662550  28.3547500  40.9098330   8.8721930  29.0320920
  40.6285550   7.9050950  27.9018350  41.5388190   6.6694900  27.0724950
  42.1810420   5.9688060  27.1857120  42.0637540   7.4493340  26.8921840
  45.3843910   6.9543520  16.7964090  45.1581490   6.2373960  17.3888730
  44.9940110   6.7055960  15.9585840  43.3125810   7.4689800  30.2761010
  43.6482050   8.0556490  30.9538930  42.3926150   7.3382510  30.5058800
  31.1659940  10.9810380  17.5708550  31.5257580  11.5799720  16.9165820
  31.0252280  11.5270270  18.3443580  44.9660160   4.8715460  18.4578250
  44.6781860   5.3328150  19.2456130  45.7612330   4.4113230  18.7262470
  31.1501800   9.2465240  32.0450950  31.2592920   8.3059980  31.9046340
  30.4982360   9.5119990  31.3964680  39.1414390   7.5181130  33.4449070
  38.8211260   6.7990370  33.9894760  38.4672750   8.1936200  33.5185130
  37.1828560   8.3641580  18.3882220  37.1738660   9.0971270  17.7726730
  36.2626920   8.1173160  18.4809180  32.7835200   3.5856470  19.1328980
  32.1763150   4.3255370  19.1424280  33.2584550   3.6755830  18.3067180
  40.1688160   8.4269820  17.0507410  40.2700140   8.2233810  16.1209390
  39.2689900   8.1728100  17.2555190  38.8106270  10.9456140  21.7455080
  39.0647770  10.9077530  20.8234450  37.8618750  10.8189470  21.7383330
  34.7940490   3.5467620  16.8817550  35.5603760   3.4348980  17.4442980
  34.8715180   2.8505590  16.2294320  46.8184430   9.0356870  24.9967850
  46.9431850   9.8588040  25.4691660  47.6849990   8.8247600  24.6492000
  34.2901960  11.1288080  24.6684980  35.0264440  10.5803540  24.9393550
  34.6742880  11.9944090  24.5290970  31.1747440   7.1961650  20.5426490
  30.2487220   7.4382790  20.5331900  31.6403870   8.0235910  20.4211240
  33.2960240  10.3134150  33.8570560  34.0972970  10.6346200  34.2705960
  32.7812060   9.9529730  34.5790470  37.4004270  10.3018390  16.4910550
  38.1932880  10.5907220  16.0392340  36.8808620   9.8710560  15.8123030
  42.1324870   6.4214020  33.8045970  41.5263030   6.4445620  33.0641720
  41.8278980   5.6897060  34.3413220  43.5625240  10.1494310  32.4155380
  44.5146990  10.0652330  32.3655620  43.4153460  10.8136020  33.0889170
  46.4534440   9.5288520  17.9147290  46.1675950   9.1153660  17.1001470
  46.2553990  10.4576230  17.7947810  31.0158050   2.8007610  32.8006610
  31.5197070   2.2214890  33.3722840  30.2765470   3.0847840  33.3382980
  37.9181670   5.5221800  16.3552900  37.8132310   4.9074150  17.0814280
  37.7505890   4.9987690  15.5715910  38.0695990   4.2078600  32.3342130
  37.3041660   4.7763600  32.2496800  38.2511950   3.9154810  31.4410360
  41.1584400   4.5841830  16.9594890  40.6094500   5.0311130  17.6037630
  41.7803660   4.0791080  17.4832560  45.2119340   5.9383930  32.8917150
  45.9528810   6.2759690  32.3884610  44.4492020   6.1075990  32.3386920
  36.8259520   3.5432750  18.8560190  37.2475940   3.3772620  19.6991580
  36.9510360   2.7332980  18.3615330  39.3387160   2.5670360  16.1037290
  39.8592820   1.8519380  15.7378440  39.9855560   3.2056230  16.4037800
  43.8865000   3.9898760  31.4272360  44.3006020   4.1443840  32.2762780
  42.9516000   4.1153980  31.5898140  38.6480230   3.9419240  29.3968290
  39.0668340   4.7851970  29.2244530  37.7288860   4.0791280  29.1675070
  43.3232030   2.2272610  29.3568640  42.7967250   2.7515230  28.7533780
  43.6663370   2.8600000  29.9878370  36.4987650  10.2472250  30.5126020
  35.9608740  10.9718310  30.1934720  36.7521610   9.7702590  29.7223360
  39.3549860  11.4823460  30.7712670  39.2808560  12.3858600  31.0785040
  38.4528700  11.1635360  30.7434740  39.9035190  10.6481970  18.3939030
  40.7985980  10.9866940  18.4157790  39.9352820   9.9261380  17.7663310
  33.5431350   6.0209020  16.6226030  33.9806220   6.5638690  17.2783610
  34.0279080   5.1955970  16.6322370  30.7577150   8.8098050  24.0746290
  31.0880160   7.9419110  23.8424930  31.1868150   9.0156570  24.9051250
  35.3539070   7.1407060  21.7348260  35.0534610   7.0172030  22.6352170
  35.2476560   6.2815650  21.3263990  31.2467360   9.6768640  26.8127920
  30.8098350   9.8569440  27.6452070  31.8145040  10.4343260  26.6709640
  46.8829540   9.1785640  31.1005230  46.2831530   9.2378200  30.3569150
  47.0123440   8.2390620  31.2302080  48.1230990   6.9203460  16.4374940
  47.2923950   6.9880110  16.9082170  48.3002820   7.8107580  16.1341800
  47.5787450   3.6650940  18.9409140  48.3406360   4.2347590  19.0468830
  47.5941820   3.0978140  19.7117450  31.0791790   2.1888870  23.1716800
  30.4240630   1.9200510  22.5276500  31.9169740   2.0793350  22.7218780
  48.5847420   4.5201040  23.7851070  48.9556250   3.7368360  23.3787040
  49.2249350   5.2090140  23.6068370  45.5681180   5.9037620  29.1981390
  44.7541020   6.3334780  29.4607180  45.9755380   6.5156030  28.5850440
  47.6306620   3.9585310  16.0981660  47.9055460   4.8664190  15.9700880
  47.4417360   3.8947840  17.0343650  32.1167720   2.5741440  27.7120140
  32.4840760   2.4868840  28.5916160  31.5478540   1.8107990  27.6127000
  45.6257230  10.6556220  22.7249660  46.2216300  10.3340790  22.0484080
  45.8835380  10.1828040  23.5162930  33.5319800   7.0874130  32.8740290
  33.4889430   6.7167040  33.7554750  33.6630810   8.0251700  33.0142110
  37.2325830   8.6433720  28.4750010  36.9917190   8.9108280  27.5880530
  38.1728470   8.8139450  28.5300870  48.4929990  10.6628100  29.2760650
  47.9988270  11.0596970  28.5587780  47.8843280  10.0377310  29.6697930
  33.3707830  10.0336380  29.9938070  32.7768150   9.9021080  30.7328110
  33.3631670   9.1974520  29.5280170  46.1769440  11.3051520  26.5547390
  45.7172410  12.0567330  26.1805410  45.5481900  10.5857990  26.4962190
  33.0020060   7.3994760  28.9446110  32.2754120   6.7800050  28.8772060
  33.0629210   7.7935370  28.0744190  36.6065160   9.6139760  25.7295520
  37.1230180   9.0027120  25.2043780  37.2562540  10.1168540  26.2206530
  39.3460660  10.5048250  26.5564500  39.6338470  10.2502550  25.6797510
  39.8583880   9.9525610  27.1470070  31.2850060  10.7169150  22.1542870
  31.1172100  10.0839830  22.8524760  30.4184570  10.9228550  21.8037060
  32.8912760   9.4102380  19.5993010  32.3660380   9.7910410  18.8954970
  32.8157340  10.0353150  20.3202720  39.4133020  11.4264350  33.9232700
  40.3400330  11.1908620  33.9668660  39.3983450  12.2536350  33.4418730
  47.6478080  10.9689920  20.9206950  47.8230270  10.2827660  20.2767870
  46.9499650  11.4936970  20.5283620  35.4905730  11.3584760  18.4742260
  36.2224550  11.0744040  17.9266150  35.7499400  11.1198040  19.3641640
  34.6520520   7.4749490  18.4788590  34.0229400   7.9434590  19.0274420
  34.7668350   6.6298710  18.9134780  45.9810580  10.6534210  33.7473740
  46.7735900  10.1583440  33.5399700  46.2743730  11.3324350  34.3549350
  40.2388280   3.3034170   6.5099060  39.4630380   2.8234610   6.7997630
  40.8901210   2.6239820   6.3355220  34.2554110   3.6153980   7.3874820
  33.4238990   3.3602690   7.7871330  34.8635090   3.6864750   8.1232740
  44.2595710   7.7094360   5.2898190  43.7977240   6.9381600   5.6185360
  45.0721260   7.7360430   5.7950640  34.2355370   7.6494070   7.5832840
  34.5383410   6.7591810   7.4043060  34.9798960   8.2064290   7.3555090
  40.4859020   9.9952370   4.9102180  39.8670460  10.4509870   4.3396620
  41.3410800  10.1503830   4.5091880  39.6797270   5.9791360   6.5169220
  39.6105550   5.0381300   6.3558350  40.4417130   6.0692770   7.0891790
  41.3522370   4.8791610   2.3034090  40.7339640   5.3441060   1.7396810
  41.8645620   5.5719090   2.7203600  36.2154130   4.4067480   8.9817690
  35.8823510   5.0336400   9.6238760  36.3920810   4.9329360   8.2019360
  35.4273230   6.3748280  10.7966870  36.0447230   7.0499360  10.5151320
  34.5666350   6.7836260  10.7054370  46.3450820   7.8387690   8.7121510
  45.6614340   8.5086800   8.7038180  46.8845110   8.0368340   7.9466370
  43.8809560   9.6831820   7.4266690  43.8936720   9.2794110   6.5588950
  43.3284780  10.4579110   7.3228120  45.1754980   6.4048040   2.5156860
  45.0651310   5.4622370   2.6406280  45.1723230   6.7663680   3.4019620
  43.2795000   4.5861660   8.7549300  43.6963790   4.3721770   7.9202760
  44.0034820   4.8434450   9.3257920  40.7175260   2.0313360   1.8719350
  39.7904540   1.9650740   2.1007820  40.8700080   2.9693490   1.7574590
  47.2257100   2.9848880   8.8465540  46.3975730   3.0541970   8.3715670
  47.8207580   3.5703190   8.3781370  44.7472550   3.5933660   2.3754600
  44.1284970   3.2553210   1.7280900  44.7297000   2.9493420   3.0833790
  36.3231900   2.5578100   4.6539080  35.9188900   1.8455350   4.1584980
  36.4095020   2.2131340   5.5427120  36.7913600   6.2445660   6.8178290
  36.4941890   5.6391130   6.1386070  37.7413420   6.2822970   6.7067650
  44.8799210   9.8177530  10.4801390  44.4029770  10.6249720  10.2874000
  44.1961000   9.1655860  10.6327600  35.8832030   5.9827350  13.4686090
  34.9860560   6.2067320  13.7159490  35.9084900   6.1062290  12.5197490
  34.7103250   2.8540670  12.0443460  34.5711020   3.7263470  12.4130860
  33.8284610   2.5113480  11.8991400  41.0332630   7.7716540   3.3508590
  41.4728540   8.5140870   2.9363980  40.9719520   8.0143110   4.2747550
  36.5083600   8.7962370  14.2528610  36.4799030   9.2005320  13.3857040
  36.3448570   7.8672730  14.0900210  48.4598420   9.5789470  15.5492780
  48.9358140  10.0572360  16.2281860  49.0805580   9.5106960  14.8238280
  30.6621900   4.6238220   7.9614370  30.7402320   4.7586990   7.0170090
  31.2763580   3.9154110   8.1542490  31.9069530   6.3238410   4.3720550
  31.4997610   6.4653000   3.5174150  32.7982540   6.0398570   4.1691760
  47.8631670   6.7702320  12.7092790  47.9894730   6.5314200  11.7909970
  47.9053050   5.9386860  13.1814870  41.7248410  10.4730320  11.2787600
  42.2393080  10.3838330  12.0810030  40.8817490  10.8190020  11.5715510
  36.1791190  10.5384190   2.4843220  36.0033670   9.6219730   2.2711020
  35.3246930  10.8971480   2.7241020  42.9678870   9.8935930   3.3418090
  43.4235820   9.1125310   3.6556710  43.3071390  10.6042750   3.8859270
  30.7181420   5.6652390  10.5008830  30.8812460   5.1957750   9.6828200
  31.1833870   5.1575950  11.1657670  32.2920400   5.0403820  12.6604640
  31.9075190   4.3997490  13.2587600  32.6032590   5.7439940  13.2299370
  45.5186680   4.1315350   6.8490710  46.2385800   4.6270640   6.4586820
  45.3168500   3.4533240   6.2044580  40.9005480   4.2024410  12.7359710
  40.8342790   3.2820080  12.4817300  40.2710620   4.2999850  13.4504350
  34.8036100   4.8030370   4.6943130  35.3214770   3.9998630   4.6400020
  34.3520120   4.7409510   5.5359960  35.4893760   2.2275980  14.4908380
  35.1893900   2.3733160  13.5936200  36.2605000   1.6681270  14.3981770
  40.8322210   7.0244980  12.4863510  40.8466750   6.0925940  12.2682420
  40.1247310   7.1104740  13.1253280  47.0433420   3.6652320  11.8332090
  46.3181610   4.2581100  11.6361480  47.5708880   3.6575860  11.0345460
  42.5733010   5.3912490   5.3315940  42.9256830   4.7940620   4.6717310
  41.6895340   5.0656720   5.5024190  38.6596290   6.1510180   2.7386350
  39.3467420   6.6979390   3.1193940  37.8728710   6.6950910   2.7735960
  37.9623500   3.1556210   2.3511710  38.4186280   3.9661460   2.5771900
  37.6111710   2.8379350   3.1830200  40.2656110   8.6662550   9.5804010
  40.9098330   8.8721930  10.2577430  40.6285550   7.9050950   9.1274860
  41.5388190   6.6694900   8.2981460  42.1810420   5.9688060   8.4113630
  42.0637540   7.4493340   8.1178350  43.3125810   7.4689800  11.5017520
  43.6482050   8.0556490  12.1795440  42.3926150   7.3382510  11.7315310
  31.1501800   9.2465240  13.2707460  31.2592920   8.3059980  13.1302850
  30.4982360   9.5119990  12.6221190  39.1414390   7.5181130  14.6705580
  38.8211260   6.7990370  15.2151270  38.4672750   8.1936200  14.7441640
  38.8106270  10.9456140   2.9711590  39.0647770  10.9077530   2.0490960
  37.8618750  10.8189470   2.9639840  46.8184430   9.0356870   6.2224360
  46.9431850   9.8588040   6.6948170  47.6849990   8.8247600   5.8748510
  34.2901960  11.1288080   5.8941490  35.0264440  10.5803540   6.1650060
  34.6742880  11.9944090   5.7547480  31.1747440   7.1961650   1.7683000
  30.2487220   7.4382790   1.7588410  31.6403870   8.0235910   1.6467750
  33.2960240  10.3134150  15.0827070  34.0972970  10.6346200  15.4962470
  32.7812060   9.9529730  15.8046980  42.1324870   6.4214020  15.0302480
  41.5263030   6.4445620  14.2898230  41.8278980   5.6897060  15.5669730
  43.5625240  10.1494310  13.6411890  44.5146990  10.0652330  13.5912130
  43.4153460  10.8136020  14.3145680  31.0158050   2.8007610  14.0263120
  31.5197070   2.2214890  14.5979350  30.2765470   3.0847840  14.5639490
  38.0695990   4.2078600  13.5598640  37.3041660   4.7763600  13.4753310
  38.2511950   3.9154810  12.6666870  45.2119340   5.9383930  14.1173660
  45.9528810   6.2759690  13.6141120  44.4492020   6.1075990  13.5643430
  43.8865000   3.9898760  12.6528870  44.3006020   4.1443840  13.5019290
  42.9516000   4.1153980  12.8154650  38.6480230   3.9419240  10.6224800
  39.0668340   4.7851970  10.4501040  37.7288860   4.0791280  10.3931580
  43.3232030   2.2272610  10.5825150  42.7967250   2.7515230   9.9790290
  43.6663370   2.8600000  11.2134880  36.4987650  10.2472250  11.7382530
  35.9608740  10.9718310  11.4191230  36.7521610   9.7702590  10.9479870
  39.3549860  11.4823460  11.9969180  39.2808560  12.3858600  12.3041550
  38.4528700  11.1635360  11.9691250  30.7577150   8.8098050   5.3002800
  31.0880160   7.9419110   5.0681440  31.1868150   9.0156570   6.1307760
  35.3539070   7.1407060   2.9604770  35.0534610   7.0172030   3.8608680
  35.2476560   6.2815650   2.5520500  31.2467360   9.6768640   8.0384430
  30.8098350   9.8569440   8.8708580  31.8145040  10.4343260   7.8966150
  46.8829540   9.1785640  12.3261740  46.2831530   9.2378200  11.5825660
  47.0123440   8.2390620  12.4558590  31.0791790   2.1888870   4.3973310
  30.4240630   1.9200510   3.7533010  31.9169740   2.0793350   3.9475290
  48.5847420   4.5201040   5.0107580  48.9556250   3.7368360   4.6043550
  49.2249350   5.2090140   4.8324880  45.5681180   5.9037620  10.4237900
  44.7541020   6.3334780  10.6863690  45.9755380   6.5156030   9.8106950
  32.1167720   2.5741440   8.9376650  32.4840760   2.4868840   9.8172670
  31.5478540   1.8107990   8.8383510  45.6257230  10.6556220   3.9506170
  46.2216300  10.3340790   3.2740590  45.8835380  10.1828040   4.7419440
  33.5319800   7.0874130  14.0996800  33.4889430   6.7167040  14.9811260
  33.6630810   8.0251700  14.2398620  37.2325830   8.6433720   9.7006520
  36.9917190   8.9108280   8.8137040  38.1728470   8.8139450   9.7557380
  48.4929990  10.6628100  10.5017160  47.9988270  11.0596970   9.7844290
  47.8843280  10.0377310  10.8954440  33.3707830  10.0336380  11.2194580
  32.7768150   9.9021080  11.9584620  33.3631670   9.1974520  10.7536680
  46.1769440  11.3051520   7.7803900  45.7172410  12.0567330   7.4061920
  45.5481900  10.5857990   7.7218700  33.0020060   7.3994760  10.1702620
  32.2754120   6.7800050  10.1028570  33.0629210   7.7935370   9.3000700
  36.6065160   9.6139760   6.9552030  37.1230180   9.0027120   6.4300290
  37.2562540  10.1168540   7.4463040  39.3460660  10.5048250   7.7821010
  39.6338470  10.2502550   6.9054020  39.8583880   9.9525610   8.3726580
  31.2850060  10.7169150   3.3799380  31.1172100  10.0839830   4.0781270
  30.4184570  10.9228550   3.0293570  39.4133020  11.4264350  15.1489210
  40.3400330  11.1908620  15.1925170  39.3983450  12.2536350  14.6675240
  47.6478080  10.9689920   2.1463460  47.8230270  10.2827660   1.5024380
  46.9499650  11.4936970   1.7540130  45.9810580  10.6534210  14.9730250
  46.7735900  10.1583440  14.7656210  46.2743730  11.3324350  15.5805860
  23.3326750  76.6229110  79.7263750  23.2520800  75.7083720  79.4555460
  22.9191170  77.1196180  79.0203460  13.8902570  73.6729830  76.2691170
  13.0019270  74.0145800  76.1671050  14.1743760  73.4730150  75.3772000
  11.8535580  76.2735480  82.1530870  12.4251690  75.5057680  82.1534510
  11.8537120  76.5724240  81.2437480  13.0960450  71.6819840  83.9399800
  12.9163290  70.7845590  84.2202560  12.6940530  72.2291710  84.6146750
  21.9358950  73.8835700  81.8412110  22.3123770  73.0107580  81.7285780
  21.8378460  74.2194400  80.9502550  16.0663960  72.2561330  77.3029550
  16.1730710  73.1565060  77.6098310  15.1556320  72.2079300  77.0124200
  25.7183070  71.3786140  78.7740450  26.5392690  70.8882710  78.8165930
  25.7517150  71.9683800  79.5272290  13.7147120  74.1780340  82.5482140
  14.3957230  74.4418710  83.1669540  13.3995170  73.3381210  82.8820150
  17.9071690  75.2247700  81.6354730  18.4149910  75.7228670  82.2759750
  18.4384930  74.4482900  81.4594090  30.0082620  73.3952890  85.3384080
  29.3034790  73.7834600  84.8199190  30.2740540  74.0903180  85.9405010
  16.1907790  69.8646260  85.9018150  16.1926230  70.3818650  85.0964050
  15.3612100  69.3876440  85.8788080  25.9544550  73.3186520  81.5467990
  25.2500120  73.6071410  82.1271100  26.3156710  74.1286630  81.1867550
  15.8723120  71.5756220  83.9088600  16.2139930  72.4198270  83.6142470
  14.9338930  71.7239960  84.0253940  29.0231470  72.7641310  81.9377200
  28.0756380  72.7980290  82.0692630  29.3481460  73.5780260  82.3226560
  19.5551010  69.0638490  80.2333190  19.8625990  68.5085380  79.5168690
  18.6251710  69.1982950  80.0506180  21.9431770  77.1287320  76.9693310
  21.0161050  77.0624700  77.1981780  22.0956590  78.0667450  76.8548550
  21.9300850  73.4004320  73.9660470  20.9904520  73.5618280  74.0512930
  22.2484110  74.1190000  73.4196460  25.4155620  74.8692160  84.8894370
  25.0026800  75.6945870  85.1434360  24.6831570  74.2837200  84.6970730
  17.5488410  77.6552060  79.7513040  17.1445410  76.9429310  79.2558940
  17.6351530  77.3105300  80.6401080  16.2617030  74.4295270  83.5312080
  16.8131620  74.5390610  82.7565330  16.7760540  74.8032870  84.2467310
  27.7310900  69.1837240  72.7942350  27.4183560  69.2764070  73.6941420
  28.4923370  69.7618270  72.7439780  14.2493040  76.5497040  77.2519690
  14.1290640  77.2759130  76.6400960  13.9393930  75.7799950  76.7747600
  16.7156700  69.8932110  80.6343360  16.2724850  70.6741650  80.3027880
  17.2741690  70.2162000  81.3414300  19.8315520  69.5142810  75.5149190
  19.2069700  69.5102680  76.2402500  19.7445640  68.6473770  75.1185160
  18.7532600  70.4379440  82.4932960  19.0504930  71.3442270  82.4124980
  19.3018160  69.9498220  81.8792530  16.5070920  75.0165680  78.3624610
  16.2811840  74.8002850  79.2671230  15.7263450  75.4494140  78.0170580
  23.7368680  75.0229050  76.9615260  23.1377570  75.7464850  76.7778880
  24.2848290  74.9605830  76.1791710  22.3433550  73.6592590  78.9918540
  22.7363120  73.9764790  78.1787230  22.7050400  72.7804470  79.1063060
  11.3797720  70.2493390  81.2148740  11.0910770  70.8196250  81.9273720
  12.1243480  69.7697840  81.5779970  11.5667950  74.1913510  72.4251460
  11.4842620  75.1344270  72.5666450  11.2151010  74.0488420  71.5463810
  22.9288690  76.2498340  83.0869320  22.1969810  76.7585150  83.4359420
  22.5313030  75.4328320  82.7858100  19.3666080  72.9252540  81.4921810
  19.3702140  72.4842490  80.6426350  20.2617200  73.2469870  81.5993630
  15.2168460  72.8079030  80.4516020  14.8768510  73.2854260  81.2083070
  14.4545780  72.3544150  80.0917120  19.4286230  73.9264620  74.4828570
  19.5499050  73.8851100  75.4314390  19.0434740  74.7888770  74.3275300
  23.3914600  71.7032020  82.4992260  23.4087340  72.1540670  83.3434110
  23.1430180  70.8037660  82.7125700  18.4407730  76.2365760  73.8811870
  17.8724630  75.7884010  73.2547780  19.1496730  76.5958540  73.3477020
  19.6674050  76.9854320  83.2387220  20.0344180  76.5112890  83.9848560
  19.4779110  77.8595890  83.5795560  12.5314540  71.7298010  79.3680690
  12.2461460  71.3653680  80.2059310  12.4693400  70.9978470  78.7543830
  17.4573420  76.0262960  85.5571430  17.1530490  76.9054940  85.7821790
  18.4119880  76.0862750  85.5928870  22.2053130  70.6227270  76.0894060
  21.3917740  70.1240440  76.0139370  22.0115080  71.4625520  75.6730410
  24.9201520  74.9946920  74.3856220  25.8081140  75.3064150  74.2107560
  24.8906610  74.1219170  73.9936800  27.1915790  76.3058760  73.8536080
  27.1079510  76.7372980  73.0032520  27.9109980  76.7657110  74.2862900
  12.0245200  76.8656960  73.3277390  12.8940050  77.1481760  73.6113310
  11.5335520  77.6792830  73.2126200  15.0891790  68.5967820  77.9208190
  14.9606420  68.5885720  78.8693110  14.2653810  68.9350910  77.5699200
  23.5824500  72.8481250  85.1316340  23.9505320  72.0276460  85.4595910
  22.7222700  72.9083140  85.5471990  26.9486530  71.8038190  75.9403900
  26.3199690  71.9083860  75.2262130  26.4538450  72.0234970  76.7297780
  18.9170560  74.0824140  77.3561780  18.2086710  74.5510480  77.7975390
  19.2015040  73.4246150  77.9906970  20.5426490  75.5020840  85.3554310
  21.0411740  75.9766660  86.0206160  20.6849440  74.5784360  85.5624340
  22.9485990  70.8074800  78.7957570  22.8253770  70.8260930  77.8467080
  23.8970550  70.8553740  78.9155970  17.1205580  72.3909220  74.7312490
  17.9696110  72.8279370  74.6652680  16.7536850  72.7029480  75.5584550
  26.0415360  76.9621980  79.6444060  25.1005500  76.9772210  79.8191750
  26.3559430  76.1757940  80.0904360  14.7143760  76.0766650  73.8880910
  14.7947350  75.1294160  73.9998310  15.6063510  76.4073530  73.9941570
  19.4677190  70.1438870  85.0986320  19.0194490  70.1663130  84.2531870
  18.8342390  69.7457890  85.6956620  16.9474930  74.7139940  72.1248820
  16.7463990  73.8507300  72.4862160  16.7766980  74.6273300  71.1870420
  24.4263240  69.5248170  74.6535700  24.7065530  68.6816070  75.0095120
  23.6528970  69.7571280  75.1674450  15.7457730  71.8140560  72.1126700
  16.0483630  71.8207990  71.2045850  16.4852320  71.4638420  72.6094360
  18.9642660  70.7575180  73.0982900  18.6164660  70.0799170  72.5185350
  19.1655430  70.2964690  73.9126290  12.3048300  77.2862830  79.4947270
  11.6497140  77.0174470  78.8506970  13.1426250  77.1767310  79.0449250
  25.2538740  72.0804120  73.7165760  25.6723620  71.8935100  72.8762420
  24.9474800  71.2283170  74.0268690  28.7528470  76.9928260  77.4141560
  28.3772070  76.2256190  76.9822850  28.0231590  77.3750960  77.9016490
  13.3424230  77.6715400  84.0350610  13.7097270  77.5842800  84.9146630
  12.7735050  76.9081950  83.9357470  11.5186380  74.4961760  75.4372600
  10.6150460  74.7591960  75.2624260  12.0027000  74.7672930  74.6572560
  28.0279430  75.2185750  80.7148800  28.5516910  74.7248400  80.0838970
  28.6138850  75.3536110  81.4596370  28.2069150  75.3025620  84.2368350
  27.2571860  75.2689160  84.3513340  28.3882160  76.2125730  84.0018120
  14.0613590  73.5527300  73.3466980  14.7705290  73.1310520  72.8614260
  13.3453530  73.6202530  72.7150330  13.7087750  69.6066630  72.3869630
  14.4315880  70.1475570  72.7050850  13.9812270  69.3330050  71.5111170
  27.5179400  74.4759100  76.6541210  28.0138520  74.2429970  77.4390090
  27.3195470  73.6370940  76.2378850  13.3979940  68.8572820  82.2892250
  14.0456130  68.3070200  81.8487410  13.8181780  69.1115970  83.1108060
  28.9466560  73.1120050  79.1878890  28.8365840  72.9576090  80.1261160
  29.7074150  72.5840990  78.9454300  27.2932280  69.0514180  85.6461890
  27.9304500  69.6648320  86.0121080  27.4407170  69.0874840  84.7011120
  29.8356830  70.9427970  72.4285030  30.7606140  70.8109150  72.2203320
  29.8132620  71.0220790  73.3821480  29.9095320  71.7138630  75.0541740
  29.1146820  71.6483750  75.5834650  30.1138600  72.6489270  75.0427090
  13.1511940  69.0128490  85.0317570  12.8026760  69.4692310  85.7975750
  12.8199640  68.1185620  85.1140000  24.0419360  68.4242570  84.5198570
  23.1679200  68.7577680  84.3171500  23.9330110  67.9515750  85.3450440
  24.9491340  70.6313440  85.9040290  24.6204700  69.8165200  85.5242020
  25.8973640  70.5883250  85.7805980  21.7894180  69.3412410  83.4591480
  21.0065970  69.8157910  83.7388240  21.4957110  68.4367240  83.3504660
  26.3415250  70.0435510  81.5040570  26.7823340  69.9880610  80.6562170
  26.0722840  70.9593520  81.5750750  28.2053820  69.6750750  79.5149390
  28.1442220  68.7311970  79.3680410  28.9845850  69.7830840  80.0602850
  13.1334590  69.6459890  75.9805200  13.8913950  69.7588770  75.4069230
  12.6711760  70.4829090  75.9348630  19.6748400  71.7599160  78.9707510
  18.8622910  71.3856050  78.6303390  20.1790040  71.0044240  79.2728700
  24.1773380  68.4241610  80.2090580  24.7802750  68.9961820  80.6839100
  23.4366370  68.9881050  79.9864480  27.3207980  68.8263170  75.4830860
  27.5158610  69.7246620  75.7498290  26.5337850  68.5950250  75.9763810
  15.5059740  70.1723940  74.5207170  16.0352500  69.3853740  74.3915120
  16.1388060  70.8515130  74.7542700  17.6997580  69.9099080  77.5752560
  17.0700320  69.2086390  77.7422690  17.1602720  70.6703210  77.3585720
  23.3326750  76.6229110  60.9520260  23.2520800  75.7083720  60.6811970
  22.9191170  77.1196180  60.2459970  13.8902570  73.6729830  57.4947680
  13.0019270  74.0145800  57.3927560  14.1743760  73.4730150  56.6028510
  11.8535580  76.2735480  63.3787380  12.4251690  75.5057680  63.3791020
  11.8537120  76.5724240  62.4693990  13.0960450  71.6819840  65.1656310
  12.9163290  70.7845590  65.4459070  12.6940530  72.2291710  65.8403260
  21.9358950  73.8835700  63.0668620  22.3123770  73.0107580  62.9542290
  21.8378460  74.2194400  62.1759060  16.0663960  72.2561330  58.5286060
  16.1730710  73.1565060  58.8354820  15.1556320  72.2079300  58.2380710
  25.7183070  71.3786140  59.9996960  26.5392690  70.8882710  60.0422440
  25.7517150  71.9683800  60.7528800  13.7147120  74.1780340  63.7738650
  14.3957230  74.4418710  64.3926050  13.3995170  73.3381210  64.1076660
  17.9071690  75.2247700  62.8611240  18.4149910  75.7228670  63.5016260
  18.4384930  74.4482900  62.6850600  30.0082620  73.3952890  66.5640590
  29.3034790  73.7834600  66.0455700  30.2740540  74.0903180  67.1661520
  16.1907790  69.8646260  67.1274660  16.1926230  70.3818650  66.3220560
  15.3612100  69.3876440  67.1044590  25.9544550  73.3186520  62.7724500
  25.2500120  73.6071410  63.3527610  26.3156710  74.1286630  62.4124060
  15.8723120  71.5756220  65.1345110  16.2139930  72.4198270  64.8398980
  14.9338930  71.7239960  65.2510450  29.0231470  72.7641310  63.1633710
  28.0756380  72.7980290  63.2949140  29.3481460  73.5780260  63.5483070
  19.5551010  69.0638490  61.4589700  19.8625990  68.5085380  60.7425200
  18.6251710  69.1982950  61.2762690  21.9431770  77.1287320  58.1949820
  21.0161050  77.0624700  58.4238290  22.0956590  78.0667450  58.0805060
  21.9300850  73.4004320  55.1916980  20.9904520  73.5618280  55.2769440
  22.2484110  74.1190000  54.6452970  25.4155620  74.8692160  66.1150880
  25.0026800  75.6945870  66.3690870  24.6831570  74.2837200  65.9227240
  17.5488410  77.6552060  60.9769550  17.1445410  76.9429310  60.4815450
  17.6351530  77.3105300  61.8657590  16.2617030  74.4295270  64.7568590
  16.8131620  74.5390610  63.9821840  16.7760540  74.8032870  65.4723820
  27.7310900  69.1837240  54.0198860  27.4183560  69.2764070  54.9197930
  28.4923370  69.7618270  53.9696290  14.2493040  76.5497040  58.4776200
  14.1290640  77.2759130  57.8657470  13.9393930  75.7799950  58.0004110
  28.9412190  73.9208740  69.9973000  28.3256460  74.4288410  69.4688460
  28.6208610  73.0207070  69.9398940  16.7156700  69.8932110  61.8599870
  16.2724850  70.6741650  61.5284390  17.2741690  70.2162000  62.5670810
  21.0026510  72.7600630  67.4635190  20.5405880  72.9683650  68.2755130
  20.6004620  71.9459980  67.1605860  26.0031020  73.9809580  68.5931850
  25.1524610  73.6815330  68.9140920  25.8432810  74.2251590  67.6815670
  23.0980730  75.4811330  70.6930640  23.4234140  74.6475080  70.3532870
  23.8861060  76.0039850  70.8408970  19.8315520  69.5142810  56.7405700
  19.2069700  69.5102680  57.4659010  19.7445640  68.6473770  56.3441670
  18.7532600  70.4379440  63.7189470  19.0504930  71.3442270  63.6381490
  19.3018160  69.9498220  63.1049040  16.5070920  75.0165680  59.5881120
  16.2811840  74.8002850  60.4927740  15.7263450  75.4494140  59.2427090
  23.7368680  75.0229050  58.1871770  23.1377570  75.7464850  58.0035390
  24.2848290  74.9605830  57.4048220  18.9470130  75.9151260  70.2541390
  18.8513730  74.9745990  70.1041790  19.7902110  76.1366330  69.8589460
  22.3433550  73.6592590  60.2175050  22.7363120  73.9764790  59.4043740
  22.7050400  72.7804470  60.3319570  14.0780670  72.3264930  68.4075170
  13.6844060  73.1740140  68.6147950  13.3899070  71.6891300  68.5983810
  20.6525720  72.4099900  71.4771910  19.9624040  72.2172100  72.1118000
  21.3958020  72.6934540  72.0096210  11.3797720  70.2493390  62.4405250
  11.0910770  70.8196250  63.1530230  12.1243480  69.7697840  62.8036480
  11.5667950  74.1913510  53.6507970  11.4842620  75.1344270  53.7922960
  11.2151010  74.0488420  52.7720320  22.9288690  76.2498340  64.3125830
  22.1969810  76.7585150  64.6615930  22.5313030  75.4328320  64.0114610
  19.3666080  72.9252540  62.7178320  19.3702140  72.4842490  61.8682860
  20.2617200  73.2469870  62.8250140  15.2168460  72.8079030  61.6772530
  14.8768510  73.2854260  62.4339580  14.4545780  72.3544150  61.3173630
  19.4286230  73.9264620  55.7085080  19.5499050  73.8851100  56.6570900
  19.0434740  74.7888770  55.5531810  23.3914600  71.7032020  63.7248770
  23.4087340  72.1540670  64.5690620  23.1430180  70.8037660  63.9382210
  18.4407730  76.2365760  55.1068380  17.8724630  75.7884010  54.4804290
  19.1496730  76.5958540  54.5733530  26.8185350  69.1164200  69.5635150
  27.1431120  68.3853860  70.0893130  26.8541860  68.7977840  68.6616140
  19.6674050  76.9854320  64.4643730  20.0344180  76.5112890  65.2105070
  19.4779110  77.8595890  64.8052070  12.5314540  71.7298010  60.5937200
  12.2461460  71.3653680  61.4315820  12.4693400  70.9978470  59.9800340
  17.4573420  76.0262960  66.7827940  17.1530490  76.9054940  67.0078300
  18.4119880  76.0862750  66.8185380  22.2053130  70.6227270  57.3150570
  21.3917740  70.1240440  57.2395880  22.0115080  71.4625520  56.8986920
  24.9201520  74.9946920  55.6112730  25.8081140  75.3064150  55.4364070
  24.8906610  74.1219170  55.2193310  13.5137150  76.8665700  67.9299300
  13.1552090  77.5319550  68.5172640  13.2191710  76.0349250  68.3011920
  16.7150270  77.3249940  70.8138850  16.4150410  77.4707120  69.9166670
  17.4861510  76.7655230  70.7212240  27.1915790  76.3058760  55.0792590
  27.1079510  76.7372980  54.2289030  27.9109980  76.7657110  55.5119410
  12.0245200  76.8656960  54.5533900  12.8940050  77.1481760  54.8369820
  11.5335520  77.6792830  54.4382710  15.0891790  68.5967820  59.1464700
  14.9606420  68.5885720  60.0949620  14.2653810  68.9350910  58.7955710
  12.0885720  70.3558940  68.6071400  11.3744240  70.5555860  69.2124010
  12.5080760  69.5798510  68.9786200  23.5824500  72.8481250  66.3572850
  23.9505320  72.0276460  66.6852420  22.7222700  72.9083140  66.7728500
  26.9486530  71.8038190  57.1660410  26.3199690  71.9083860  56.4518640
  26.4538450  72.0234970  57.9554290  18.9170560  74.0824140  58.5818290
  18.2086710  74.5510480  59.0231900  19.2015040  73.4246150  59.2163480
  20.5426490  75.5020840  66.5810820  21.0411740  75.9766660  67.2462670
  20.6849440  74.5784360  66.7880850  22.9485990  70.8074800  60.0214080
  22.8253770  70.8260930  59.0723590  23.8970550  70.8553740  60.1412480
  17.1205580  72.3909220  55.9569000  17.9696110  72.8279370  55.8909190
  16.7536850  72.7029480  56.7841060  27.7493350  71.7188800  67.4239210
  27.2466950  72.4594200  67.7633020  28.5650010  72.1072800  67.1076000
  26.0415360  76.9621980  60.8700570  25.1005500  76.9772210  61.0448260
  26.3559430  76.1757940  61.3160870  14.7143760  76.0766650  55.1137420
  14.7947350  75.1294160  55.2254820  15.6063510  76.4073530  55.2198080
  12.2414560  77.8981570  70.3493590  12.7453580  77.3188850  70.9209820
  11.5021980  78.1821800  70.8869960  14.2737640  76.0411160  71.2443660
  14.3142980  75.7425030  72.1528890  15.1283140  76.4418770  71.0851180
  16.2143450  74.6203260  69.2118150  15.6839910  74.1294210  68.5841490
  16.8831520  75.0487460  68.6776080  25.5843680  76.4268880  70.9798490
  26.1664450  75.6721200  70.8918970  25.7605450  76.9576320  70.2029970
  16.7015750  71.5865630  69.2915440  16.6072620  70.9686380  68.5666310
  16.1213140  72.3131920  69.0645350  19.4677190  70.1438870  66.3242830
  19.0194490  70.1663130  65.4788380  18.8342390  69.7457890  66.9213130
  22.2100640  76.7709380  68.3293110  22.3296850  76.1750520  69.0687950
  23.0694640  76.8079070  67.9094410  24.5488540  77.3246570  66.9055620
  24.0223760  77.8489190  66.3020760  24.8919880  77.9573960  67.5365350
  16.9474930  74.7139940  53.3505330  16.7463990  73.8507300  53.7118670
  16.7766980  74.6273300  52.4126930  18.9769410  73.3130730  69.5868930
  19.5669100  73.0046580  70.2746750  18.1589650  72.8410480  69.7428830
  23.7962840  72.9296540  69.8201950  23.1078360  72.2678080  69.7551940
  24.5168860  72.4834810  70.2650410  24.4263240  69.5248170  55.8792210
  24.7065530  68.6816070  56.2351630  23.6528970  69.7571280  56.3930960
  15.7457730  71.8140560  53.3383210  16.0483630  71.8207990  52.4302360
  16.4852320  71.4638420  53.8350870  18.9642660  70.7575180  54.3239410
  18.6164660  70.0799170  53.7441860  19.1655430  70.2964690  55.1382800
  12.3048300  77.2862830  60.7203780  11.6497140  77.0174470  60.0763480
  13.1426250  77.1767310  60.2705760  25.2538740  72.0804120  54.9422270
  25.6723620  71.8935100  54.1018930  24.9474800  71.2283170  55.2525200
  28.7528470  76.9928260  58.6398070  28.3772070  76.2256190  58.2079360
  28.0231590  77.3750960  59.1273000  13.3424230  77.6715400  65.2607120
  13.7097270  77.5842800  66.1403140  12.7735050  76.9081950  65.1613980
  28.1428090  76.1399780  68.2737590  27.9114180  75.9112530  67.3735540
  28.4032640  77.0599330  68.2282480  12.8940230  74.5824490  69.1665540
  11.9996280  74.5491250  69.5059250  13.4337780  74.7811280  69.9316790
  26.5816160  71.3656210  71.0517290  27.4586340  71.3739610  71.4351290
  26.5937000  70.6287050  70.4409640  11.5186380  74.4961760  56.6629110
  10.6150460  74.7591960  56.4880770  12.0027000  74.7672930  55.8829070
  28.0279430  75.2185750  61.9405310  28.5516910  74.7248400  61.3095480
  28.6138850  75.3536110  62.6852880  28.2069150  75.3025620  65.4624860
  27.2571860  75.2689160  65.5769850  28.3882160  76.2125730  65.2274630
  14.0613590  73.5527300  54.5723490  14.7705290  73.1310520  54.0870770
  13.3453530  73.6202530  53.9406840  13.7087750  69.6066630  53.6126140
  14.4315880  70.1475570  53.9307360  13.9812270  69.3330050  52.7367680
  27.5179400  74.4759100  57.8797720  28.0138520  74.2429970  58.6646600
  27.3195470  73.6370940  57.4635360  13.3979940  68.8572820  63.5148760
  14.0456130  68.3070200  63.0743920  13.8181780  69.1115970  64.3364570
  28.9466560  73.1120050  60.4135400  28.8365840  72.9576090  61.3517670
  29.7074150  72.5840990  60.1710810  27.2932280  69.0514180  66.8718400
  27.9304500  69.6648320  67.2377590  27.4407170  69.0874840  65.9267630
  29.8356830  70.9427970  53.6541540  30.7606140  70.8109150  53.4459830
  29.8132620  71.0220790  54.6077990  29.9095320  71.7138630  56.2798250
  29.1146820  71.6483750  56.8091160  30.1138600  72.6489270  56.2683600
  13.1511940  69.0128490  66.2574080  12.8026760  69.4692310  67.0232260
  12.8199640  68.1185620  66.3396510  20.6636760  70.2040370  69.7793500
  20.6025650  70.7962200  70.5288910  21.6037140  70.0966330  69.6343760
  23.3011320  69.8610430  69.4185790  23.9151730  70.1789720  68.7566870
  23.8460880  69.3759020  70.0381650  13.8232580  68.5404690  69.5324850
  14.3715570  68.3592740  68.7690960  13.8887890  67.7498800  70.0681160
  24.0419360  68.4242570  65.7455080  23.1679200  68.7577680  65.5428010
  23.9330110  67.9515750  66.5706950  24.9491340  70.6313440  67.1296800
  24.6204700  69.8165200  66.7498530  25.8973640  70.5883250  67.0062490
  21.7894180  69.3412410  64.6847990  21.0065970  69.8157910  64.9644750
  21.4957110  68.4367240  64.5761170  26.3415250  70.0435510  62.7297080
  26.7823340  69.9880610  61.8818680  26.0722840  70.9593520  62.8007260
  28.2053820  69.6750750  60.7405900  28.1442220  68.7311970  60.5936920
  28.9845850  69.7830840  61.2859360  13.1334590  69.6459890  57.2061710
  13.8913950  69.7588770  56.6325740  12.6711760  70.4829090  57.1605140
  19.6748400  71.7599160  60.1964020  18.8622910  71.3856050  59.8559900
  20.1790040  71.0044240  60.4985210  24.1773380  68.4241610  61.4347090
  24.7802750  68.9961820  61.9095610  23.4366370  68.9881050  61.2120990
  27.3207980  68.8263170  56.7087370  27.5158610  69.7246620  56.9754800
  26.5337850  68.5950250  57.2020320  15.5059740  70.1723940  55.7463680
  16.0352500  69.3853740  55.6171630  16.1388060  70.8515130  55.9799210
  17.6997580  69.9099080  58.8009070  17.0700320  69.2086390  58.9679200
  17.1602720  70.6703210  58.5842230  17.8253140  69.1883060  71.2361560
  17.5437410  69.6916660  70.4722380  18.2072840  68.3904810  70.8703690
  24.4268600  68.6036640  71.8142030  24.3134050  68.9231250  72.7093550
  25.2438340  69.0049150  71.5179310  23.3326750  76.6229110  42.1776770
  23.2520800  75.7083720  41.9068480  22.9191170  77.1196180  41.4716480
  13.8902570  73.6729830  38.7204190  13.0019270  74.0145800  38.6184070
  14.1743760  73.4730150  37.8285020  11.8535580  76.2735480  44.6043890
  12.4251690  75.5057680  44.6047530  11.8537120  76.5724240  43.6950500
  13.0960450  71.6819840  46.3912820  12.9163290  70.7845590  46.6715580
  12.6940530  72.2291710  47.0659770  21.9358950  73.8835700  44.2925130
  22.3123770  73.0107580  44.1798800  21.8378460  74.2194400  43.4015570
  16.0663960  72.2561330  39.7542570  16.1730710  73.1565060  40.0611330
  15.1556320  72.2079300  39.4637220  25.7183070  71.3786140  41.2253470
  26.5392690  70.8882710  41.2678950  25.7517150  71.9683800  41.9785310
  13.7147120  74.1780340  44.9995160  14.3957230  74.4418710  45.6182560
  13.3995170  73.3381210  45.3333170  17.9071690  75.2247700  44.0867750
  18.4149910  75.7228670  44.7272770  18.4384930  74.4482900  43.9107110
  30.0082620  73.3952890  47.7897100  29.3034790  73.7834600  47.2712210
  30.2740540  74.0903180  48.3918030  16.1907790  69.8646260  48.3531170
  16.1926230  70.3818650  47.5477070  15.3612100  69.3876440  48.3301100
  25.9544550  73.3186520  43.9981010  25.2500120  73.6071410  44.5784120
  26.3156710  74.1286630  43.6380570  15.8723120  71.5756220  46.3601620
  16.2139930  72.4198270  46.0655490  14.9338930  71.7239960  46.4766960
  29.0231470  72.7641310  44.3890220  28.0756380  72.7980290  44.5205650
  29.3481460  73.5780260  44.7739580  19.5551010  69.0638490  42.6846210
  19.8625990  68.5085380  41.9681710  18.6251710  69.1982950  42.5019200
  21.9431770  77.1287320  39.4206330  21.0161050  77.0624700  39.6494800
  22.0956590  78.0667450  39.3061570  21.9300850  73.4004320  36.4173490
  20.9904520  73.5618280  36.5025950  22.2484110  74.1190000  35.8709480
  25.4155620  74.8692160  47.3407390  25.0026800  75.6945870  47.5947380
  24.6831570  74.2837200  47.1483750  17.5488410  77.6552060  42.2026060
  17.1445410  76.9429310  41.7071960  17.6351530  77.3105300  43.0914100
  16.2617030  74.4295270  45.9825100  16.8131620  74.5390610  45.2078350
  16.7760540  74.8032870  46.6980330  27.7310900  69.1837240  35.2455370
  27.4183560  69.2764070  36.1454440  28.4923370  69.7618270  35.1952800
  14.2493040  76.5497040  39.7032710  14.1290640  77.2759130  39.0913980
  13.9393930  75.7799950  39.2260620  28.9412190  73.9208740  51.2229510
  28.3256460  74.4288410  50.6944970  28.6208610  73.0207070  51.1655450
  16.7156700  69.8932110  43.0856380  16.2724850  70.6741650  42.7540900
  17.2741690  70.2162000  43.7927320  21.0026510  72.7600630  48.6891700
  20.5405880  72.9683650  49.5011640  20.6004620  71.9459980  48.3862370
  26.0031020  73.9809580  49.8188360  25.1524610  73.6815330  50.1397430
  25.8432810  74.2251590  48.9072180  23.0980730  75.4811330  51.9187150
  23.4234140  74.6475080  51.5789380  23.8861060  76.0039850  52.0665480
  19.8315520  69.5142810  37.9662210  19.2069700  69.5102680  38.6915520
  19.7445640  68.6473770  37.5698180  18.7532600  70.4379440  44.9445980
  19.0504930  71.3442270  44.8638000  19.3018160  69.9498220  44.3305550
  16.5070920  75.0165680  40.8137630  16.2811840  74.8002850  41.7184250
  15.7263450  75.4494140  40.4683600  23.7368680  75.0229050  39.4128280
  23.1377570  75.7464850  39.2291900  24.2848290  74.9605830  38.6304730
  18.9470130  75.9151260  51.4797900  18.8513730  74.9745990  51.3298300
  19.7902110  76.1366330  51.0845970  22.3433550  73.6592590  41.4431560
  22.7363120  73.9764790  40.6300250  22.7050400  72.7804470  41.5576080
  14.0780670  72.3264930  49.6331680  13.6844060  73.1740140  49.8404460
  13.3899070  71.6891300  49.8240320  20.6525720  72.4099900  52.7028420
  19.9624040  72.2172100  53.3374510  21.3958020  72.6934540  53.2352720
  11.3797720  70.2493390  43.6661760  11.0910770  70.8196250  44.3786740
  12.1243480  69.7697840  44.0292990  11.5667950  74.1913510  34.8764480
  11.4842620  75.1344270  35.0179470  11.2151010  74.0488420  33.9976830
  22.9288690  76.2498340  45.5382340  22.1969810  76.7585150  45.8872440
  22.5313030  75.4328320  45.2371120  19.3666080  72.9252540  43.9434830
  19.3702140  72.4842490  43.0939370  20.2617200  73.2469870  44.0506650
  15.2168460  72.8079030  42.9029040  14.8768510  73.2854260  43.6596090
  14.4545780  72.3544150  42.5430140  19.4286230  73.9264620  36.9341590
  19.5499050  73.8851100  37.8827410  19.0434740  74.7888770  36.7788320
  23.3914600  71.7032020  44.9505280  23.4087340  72.1540670  45.7947130
  23.1430180  70.8037660  45.1638720  18.4407730  76.2365760  36.3324890
  17.8724630  75.7884010  35.7060800  19.1496730  76.5958540  35.7990040
  26.8185350  69.1164200  50.7891660  27.1431120  68.3853860  51.3149640
  26.8541860  68.7977840  49.8872650  19.6674050  76.9854320  45.6900240
  20.0344180  76.5112890  46.4361580  19.4779110  77.8595890  46.0308580
  12.5314540  71.7298010  41.8193710  12.2461460  71.3653680  42.6572330
  12.4693400  70.9978470  41.2056850  17.4573420  76.0262960  48.0084450
  17.1530490  76.9054940  48.2334810  18.4119880  76.0862750  48.0441890
  22.2053130  70.6227270  38.5407080  21.3917740  70.1240440  38.4652390
  22.0115080  71.4625520  38.1243430  24.9201520  74.9946920  36.8369240
  25.8081140  75.3064150  36.6620580  24.8906610  74.1219170  36.4449820
  13.5137150  76.8665700  49.1555810  13.1552090  77.5319550  49.7429150
  13.2191710  76.0349250  49.5268430  16.7150270  77.3249940  52.0395360
  16.4150410  77.4707120  51.1423180  17.4861510  76.7655230  51.9468750
  27.1915790  76.3058760  36.3049100  27.1079510  76.7372980  35.4545540
  27.9109980  76.7657110  36.7375920  12.0245200  76.8656960  35.7790410
  12.8940050  77.1481760  36.0626330  11.5335520  77.6792830  35.6639220
  15.0891790  68.5967820  40.3721210  14.9606420  68.5885720  41.3206130
  14.2653810  68.9350910  40.0212220  12.0885720  70.3558940  49.8327910
  11.3744240  70.5555860  50.4380520  12.5080760  69.5798510  50.2042710
  23.5824500  72.8481250  47.5829360  23.9505320  72.0276460  47.9108930
  22.7222700  72.9083140  47.9985010  26.9486530  71.8038190  38.3916920
  26.3199690  71.9083860  37.6775150  26.4538450  72.0234970  39.1810800
  18.9170560  74.0824140  39.8074800  18.2086710  74.5510480  40.2488410
  19.2015040  73.4246150  40.4419990  20.5426490  75.5020840  47.8067330
  21.0411740  75.9766660  48.4719180  20.6849440  74.5784360  48.0137360
  22.9485990  70.8074800  41.2470590  22.8253770  70.8260930  40.2980100
  23.8970550  70.8553740  41.3668990  17.1205580  72.3909220  37.1825510
  17.9696110  72.8279370  37.1165700  16.7536850  72.7029480  38.0097570
  27.7493350  71.7188800  48.6495720  27.2466950  72.4594200  48.9889530
  28.5650010  72.1072800  48.3332510  26.0415360  76.9621980  42.0957080
  25.1005500  76.9772210  42.2704770  26.3559430  76.1757940  42.5417380
  14.7143760  76.0766650  36.3393930  14.7947350  75.1294160  36.4511330
  15.6063510  76.4073530  36.4454590  12.2414560  77.8981570  51.5750100
  12.7453580  77.3188850  52.1466330  11.5021980  78.1821800  52.1126470
  14.2737640  76.0411160  52.4700170  14.3142980  75.7425030  53.3785400
  15.1283140  76.4418770  52.3107690  16.2143450  74.6203260  50.4374660
  15.6839910  74.1294210  49.8098000  16.8831520  75.0487460  49.9032590
  25.5843680  76.4268880  52.2055000  26.1664450  75.6721200  52.1175480
  25.7605450  76.9576320  51.4286480  16.7015750  71.5865630  50.5171950
  16.6072620  70.9686380  49.7922820  16.1213140  72.3131920  50.2901860
  19.4677190  70.1438870  47.5499340  19.0194490  70.1663130  46.7044890
  18.8342390  69.7457890  48.1469640  22.2100640  76.7709380  49.5549620
  22.3296850  76.1750520  50.2944460  23.0694640  76.8079070  49.1350920
  24.5488540  77.3246570  48.1312130  24.0223760  77.8489190  47.5277270
  24.8919880  77.9573960  48.7621860  16.9474930  74.7139940  34.5761840
  16.7463990  73.8507300  34.9375180  16.7766980  74.6273300  33.6383440
  18.9769410  73.3130730  50.8125440  19.5669100  73.0046580  51.5003260
  18.1589650  72.8410480  50.9685340  23.7962840  72.9296540  51.0458460
  23.1078360  72.2678080  50.9808450  24.5168860  72.4834810  51.4906920
  24.4263240  69.5248170  37.1048720  24.7065530  68.6816070  37.4608140
  23.6528970  69.7571280  37.6187470  15.7457730  71.8140560  34.5639720
  16.0483630  71.8207990  33.6558870  16.4852320  71.4638420  35.0607380
  18.9642660  70.7575180  35.5495920  18.6164660  70.0799170  34.9698370
  19.1655430  70.2964690  36.3639310  12.3048300  77.2862830  41.9460290
  11.6497140  77.0174470  41.3019990  13.1426250  77.1767310  41.4962270
  25.2538740  72.0804120  36.1678780  25.6723620  71.8935100  35.3275440
  24.9474800  71.2283170  36.4781710  28.7528470  76.9928260  39.8654580
  28.3772070  76.2256190  39.4335870  28.0231590  77.3750960  40.3529510
  13.3424230  77.6715400  46.4863630  13.7097270  77.5842800  47.3659650
  12.7735050  76.9081950  46.3870490  28.1428090  76.1399780  49.4994100
  27.9114180  75.9112530  48.5992050  28.4032640  77.0599330  49.4538990
  12.8940230  74.5824490  50.3922050  11.9996280  74.5491250  50.7315760
  13.4337780  74.7811280  51.1573300  26.5816160  71.3656210  52.2773800
  27.4586340  71.3739610  52.6607800  26.5937000  70.6287050  51.6666150
  11.5186380  74.4961760  37.8885620  10.6150460  74.7591960  37.7137280
  12.0027000  74.7672930  37.1085580  28.0279430  75.2185750  43.1661820
  28.5516910  74.7248400  42.5351990  28.6138850  75.3536110  43.9109390
  28.2069150  75.3025620  46.6881370  27.2571860  75.2689160  46.8026360
  28.3882160  76.2125730  46.4531140  14.0613590  73.5527300  35.7980000
  14.7705290  73.1310520  35.3127280  13.3453530  73.6202530  35.1663350
  13.7087750  69.6066630  34.8382650  14.4315880  70.1475570  35.1563870
  13.9812270  69.3330050  33.9624190  27.5179400  74.4759100  39.1054230
  28.0138520  74.2429970  39.8903110  27.3195470  73.6370940  38.6891870
  13.3979940  68.8572820  44.7405270  14.0456130  68.3070200  44.3000430
  13.8181780  69.1115970  45.5621080  28.9466560  73.1120050  41.6391910
  28.8365840  72.9576090  42.5774180  29.7074150  72.5840990  41.3967320
  27.2932280  69.0514180  48.0974910  27.9304500  69.6648320  48.4634100
  27.4407170  69.0874840  47.1524140  29.8356830  70.9427970  34.8798050
  30.7606140  70.8109150  34.6716340  29.8132620  71.0220790  35.8334500
  29.9095320  71.7138630  37.5054760  29.1146820  71.6483750  38.0347670
  30.1138600  72.6489270  37.4940110  13.1511940  69.0128490  47.4830590
  12.8026760  69.4692310  48.2488770  12.8199640  68.1185620  47.5653020
  20.6636760  70.2040370  51.0050010  20.6025650  70.7962200  51.7545420
  21.6037140  70.0966330  50.8600270  23.3011320  69.8610430  50.6442300
  23.9151730  70.1789720  49.9823380  23.8460880  69.3759020  51.2638160
  13.8232580  68.5404690  50.7581360  14.3715570  68.3592740  49.9947470
  13.8887890  67.7498800  51.2937670  24.0419360  68.4242570  46.9711590
  23.1679200  68.7577680  46.7684520  23.9330110  67.9515750  47.7963460
  24.9491340  70.6313440  48.3553310  24.6204700  69.8165200  47.9755040
  25.8973640  70.5883250  48.2319000  21.7894180  69.3412410  45.9104500
  21.0065970  69.8157910  46.1901260  21.4957110  68.4367240  45.8017680
  26.3415250  70.0435510  43.9553590  26.7823340  69.9880610  43.1075190
  26.0722840  70.9593520  44.0263770  28.2053820  69.6750750  41.9662410
  28.1442220  68.7311970  41.8193430  28.9845850  69.7830840  42.5115870
  13.1334590  69.6459890  38.4318220  13.8913950  69.7588770  37.8582250
  12.6711760  70.4829090  38.3861650  19.6748400  71.7599160  41.4220530
  18.8622910  71.3856050  41.0816410  20.1790040  71.0044240  41.7241720
  24.1773380  68.4241610  42.6603600  24.7802750  68.9961820  43.1352120
  23.4366370  68.9881050  42.4377500  27.3207980  68.8263170  37.9343880
  27.5158610  69.7246620  38.2011310  26.5337850  68.5950250  38.4276830
  15.5059740  70.1723940  36.9720190  16.0352500  69.3853740  36.8428140
  16.1388060  70.8515130  37.2055720  17.6997580  69.9099080  40.0265580
  17.0700320  69.2086390  40.1935710  17.1602720  70.6703210  39.8098740
  17.8253140  69.1883060  52.4618070  17.5437410  69.6916660  51.6978890
  18.2072840  68.3904810  52.0960200  24.4268600  68.6036640  53.0398540
  24.3134050  68.9231250  53.9350060  25.2438340  69.0049150  52.7435820
  23.3326750  76.6229110  23.4033280  23.2520800  75.7083720  23.1324990
  22.9191170  77.1196180  22.6972990  13.8902570  73.6729830  19.9460700
  13.0019270  74.0145800  19.8440580  14.1743760  73.4730150  19.0541530
  11.8535580  76.2735480  25.8300400  12.4251690  75.5057680  25.8304040
  11.8537120  76.5724240  24.9207010  13.0960450  71.6819840  27.6169330
  12.9163290  70.7845590  27.8972090  12.6940530  72.2291710  28.2916280
  21.9358950  73.8835700  25.5181640  22.3123770  73.0107580  25.4055310
  21.8378460  74.2194400  24.6272080  16.0663960  72.2561330  20.9799080
  16.1730710  73.1565060  21.2867840  15.1556320  72.2079300  20.6893730
  25.7183070  71.3786140  22.4509980  26.5392690  70.8882710  22.4935460
  25.7517150  71.9683800  23.2041820  13.7147120  74.1780340  26.2251670
  14.3957230  74.4418710  26.8439070  13.3995170  73.3381210  26.5589680
  17.9071690  75.2247700  25.3124260  18.4149910  75.7228670  25.9529280
  18.4384930  74.4482900  25.1363620  30.0082620  73.3952890  29.0153610
  29.3034790  73.7834600  28.4968720  30.2740540  74.0903180  29.6174540
  16.1907790  69.8646260  29.5787680  16.1926230  70.3818650  28.7733580
  15.3612100  69.3876440  29.5557610  25.9544550  73.3186520  25.2237520
  25.2500120  73.6071410  25.8040630  26.3156710  74.1286630  24.8637080
  15.8723120  71.5756220  27.5858130  16.2139930  72.4198270  27.2912000
  14.9338930  71.7239960  27.7023470  29.0231470  72.7641310  25.6146730
  28.0756380  72.7980290  25.7462160  29.3481460  73.5780260  25.9996090
  19.5551010  69.0638490  23.9102720  19.8625990  68.5085380  23.1938220
  18.6251710  69.1982950  23.7275710  21.9431770  77.1287320  20.6462840
  21.0161050  77.0624700  20.8751310  22.0956590  78.0667450  20.5318080
  21.9300850  73.4004320  17.6430000  20.9904520  73.5618280  17.7282460
  22.2484110  74.1190000  17.0965990  25.4155620  74.8692160  28.5663900
  25.0026800  75.6945870  28.8203890  24.6831570  74.2837200  28.3740260
  17.5488410  77.6552060  23.4282570  17.1445410  76.9429310  22.9328470
  17.6351530  77.3105300  24.3170610  16.2617030  74.4295270  27.2081610
  16.8131620  74.5390610  26.4334860  16.7760540  74.8032870  27.9236840
  27.7310900  69.1837240  16.4711880  27.4183560  69.2764070  17.3710950
  28.4923370  69.7618270  16.4209310  14.2493040  76.5497040  20.9289220
  14.1290640  77.2759130  20.3170490  13.9393930  75.7799950  20.4517130
  28.9412190  73.9208740  32.4486020  28.3256460  74.4288410  31.9201480
  28.6208610  73.0207070  32.3911960  16.7156700  69.8932110  24.3112890
  16.2724850  70.6741650  23.9797410  17.2741690  70.2162000  25.0183830
  21.0026510  72.7600630  29.9148210  20.5405880  72.9683650  30.7268150
  20.6004620  71.9459980  29.6118880  26.0031020  73.9809580  31.0444870
  25.1524610  73.6815330  31.3653940  25.8432810  74.2251590  30.1328690
  23.0980730  75.4811330  33.1443660  23.4234140  74.6475080  32.8045890
  23.8861060  76.0039850  33.2921990  19.8315520  69.5142810  19.1918720
  19.2069700  69.5102680  19.9172030  19.7445640  68.6473770  18.7954690
  18.7532600  70.4379440  26.1702490  19.0504930  71.3442270  26.0894510
  19.3018160  69.9498220  25.5562060  16.5070920  75.0165680  22.0394140
  16.2811840  74.8002850  22.9440760  15.7263450  75.4494140  21.6940110
  23.7368680  75.0229050  20.6384790  23.1377570  75.7464850  20.4548410
  24.2848290  74.9605830  19.8561240  18.9470130  75.9151260  32.7054410
  18.8513730  74.9745990  32.5554810  19.7902110  76.1366330  32.3102480
  22.3433550  73.6592590  22.6688070  22.7363120  73.9764790  21.8556760
  22.7050400  72.7804470  22.7832590  14.0780670  72.3264930  30.8588190
  13.6844060  73.1740140  31.0660970  13.3899070  71.6891300  31.0496830
  20.6525720  72.4099900  33.9284930  19.9624040  72.2172100  34.5631020
  21.3958020  72.6934540  34.4609230  11.3797720  70.2493390  24.8918270
  11.0910770  70.8196250  25.6043250  12.1243480  69.7697840  25.2549500
  11.5667950  74.1913510  16.1020990  11.4842620  75.1344270  16.2435980
  11.2151010  74.0488420  15.2233340  22.9288690  76.2498340  26.7638850
  22.1969810  76.7585150  27.1128950  22.5313030  75.4328320  26.4627630
  19.3666080  72.9252540  25.1691340  19.3702140  72.4842490  24.3195880
  20.2617200  73.2469870  25.2763160  15.2168460  72.8079030  24.1285550
  14.8768510  73.2854260  24.8852600  14.4545780  72.3544150  23.7686650
  19.4286230  73.9264620  18.1598100  19.5499050  73.8851100  19.1083920
  19.0434740  74.7888770  18.0044830  23.3914600  71.7032020  26.1761790
  23.4087340  72.1540670  27.0203640  23.1430180  70.8037660  26.3895230
  18.4407730  76.2365760  17.5581400  17.8724630  75.7884010  16.9317310
  19.1496730  76.5958540  17.0246550  26.8185350  69.1164200  32.0148170
  27.1431120  68.3853860  32.5406150  26.8541860  68.7977840  31.1129160
  19.6674050  76.9854320  26.9156750  20.0344180  76.5112890  27.6618090
  19.4779110  77.8595890  27.2565090  12.5314540  71.7298010  23.0450220
  12.2461460  71.3653680  23.8828840  12.4693400  70.9978470  22.4313360
  17.4573420  76.0262960  29.2340960  17.1530490  76.9054940  29.4591320
  18.4119880  76.0862750  29.2698400  22.2053130  70.6227270  19.7663590
  21.3917740  70.1240440  19.6908900  22.0115080  71.4625520  19.3499940
  24.9201520  74.9946920  18.0625750  25.8081140  75.3064150  17.8877090
  24.8906610  74.1219170  17.6706330  13.5137150  76.8665700  30.3812320
  13.1552090  77.5319550  30.9685660  13.2191710  76.0349250  30.7524940
  16.7150270  77.3249940  33.2651870  16.4150410  77.4707120  32.3679690
  17.4861510  76.7655230  33.1725260  27.1915790  76.3058760  17.5305610
  27.1079510  76.7372980  16.6802050  27.9109980  76.7657110  17.9632430
  12.0245200  76.8656960  17.0046920  12.8940050  77.1481760  17.2882840
  11.5335520  77.6792830  16.8895730  15.0891790  68.5967820  21.5977720
  14.9606420  68.5885720  22.5462640  14.2653810  68.9350910  21.2468730
  12.0885720  70.3558940  31.0584420  11.3744240  70.5555860  31.6637030
  12.5080760  69.5798510  31.4299220  23.5824500  72.8481250  28.8085870
  23.9505320  72.0276460  29.1365440  22.7222700  72.9083140  29.2241520
  26.9486530  71.8038190  19.6173430  26.3199690  71.9083860  18.9031660
  26.4538450  72.0234970  20.4067310  18.9170560  74.0824140  21.0331310
  18.2086710  74.5510480  21.4744920  19.2015040  73.4246150  21.6676500
  20.5426490  75.5020840  29.0323840  21.0411740  75.9766660  29.6975690
  20.6849440  74.5784360  29.2393870  22.9485990  70.8074800  22.4727100
  22.8253770  70.8260930  21.5236610  23.8970550  70.8553740  22.5925500
  17.1205580  72.3909220  18.4082020  17.9696110  72.8279370  18.3422210
  16.7536850  72.7029480  19.2354080  27.7493350  71.7188800  29.8752230
  27.2466950  72.4594200  30.2146040  28.5650010  72.1072800  29.5589020
  26.0415360  76.9621980  23.3213590  25.1005500  76.9772210  23.4961280
  26.3559430  76.1757940  23.7673890  14.7143760  76.0766650  17.5650440
  14.7947350  75.1294160  17.6767840  15.6063510  76.4073530  17.6711100
  12.2414560  77.8981570  32.8006610  12.7453580  77.3188850  33.3722840
  11.5021980  78.1821800  33.3382980  14.2737640  76.0411160  33.6956680
  14.3142980  75.7425030  34.6041910  15.1283140  76.4418770  33.5364200
  16.2143450  74.6203260  31.6631170  15.6839910  74.1294210  31.0354510
  16.8831520  75.0487460  31.1289100  25.5843680  76.4268880  33.4311510
  26.1664450  75.6721200  33.3431990  25.7605450  76.9576320  32.6542990
  16.7015750  71.5865630  31.7428460  16.6072620  70.9686380  31.0179330
  16.1213140  72.3131920  31.5158370  19.4677190  70.1438870  28.7755850
  19.0194490  70.1663130  27.9301400  18.8342390  69.7457890  29.3726150
  22.2100640  76.7709380  30.7806130  22.3296850  76.1750520  31.5200970
  23.0694640  76.8079070  30.3607430  24.5488540  77.3246570  29.3568640
  24.0223760  77.8489190  28.7533780  24.8919880  77.9573960  29.9878370
  16.9474930  74.7139940  15.8018350  16.7463990  73.8507300  16.1631690
  16.7766980  74.6273300  14.8639950  18.9769410  73.3130730  32.0381950
  19.5669100  73.0046580  32.7259770  18.1589650  72.8410480  32.1941850
  23.7962840  72.9296540  32.2714970  23.1078360  72.2678080  32.2064960
  24.5168860  72.4834810  32.7163430  24.4263240  69.5248170  18.3305230
  24.7065530  68.6816070  18.6864650  23.6528970  69.7571280  18.8443980
  15.7457730  71.8140560  15.7896230  16.0483630  71.8207990  14.8815380
  16.4852320  71.4638420  16.2863890  18.9642660  70.7575180  16.7752430
  18.6164660  70.0799170  16.1954880  19.1655430  70.2964690  17.5895820
  12.3048300  77.2862830  23.1716800  11.6497140  77.0174470  22.5276500
  13.1426250  77.1767310  22.7218780  25.2538740  72.0804120  17.3935290
  25.6723620  71.8935100  16.5531950  24.9474800  71.2283170  17.7038220
  28.7528470  76.9928260  21.0911090  28.3772070  76.2256190  20.6592380
  28.0231590  77.3750960  21.5786020  13.3424230  77.6715400  27.7120140
  13.7097270  77.5842800  28.5916160  12.7735050  76.9081950  27.6127000
  28.1428090  76.1399780  30.7250610  27.9114180  75.9112530  29.8248560
  28.4032640  77.0599330  30.6795500  12.8940230  74.5824490  31.6178560
  11.9996280  74.5491250  31.9572270  13.4337780  74.7811280  32.3829810
  26.5816160  71.3656210  33.5030310  27.4586340  71.3739610  33.8864310
  26.5937000  70.6287050  32.8922660  11.5186380  74.4961760  19.1142130
  10.6150460  74.7591960  18.9393790  12.0027000  74.7672930  18.3342090
  28.0279430  75.2185750  24.3918330  28.5516910  74.7248400  23.7608500
  28.6138850  75.3536110  25.1365900  28.2069150  75.3025620  27.9137880
  27.2571860  75.2689160  28.0282870  28.3882160  76.2125730  27.6787650
  14.0613590  73.5527300  17.0236510  14.7705290  73.1310520  16.5383790
  13.3453530  73.6202530  16.3919860  13.7087750  69.6066630  16.0639160
  14.4315880  70.1475570  16.3820380  13.9812270  69.3330050  15.1880700
  27.5179400  74.4759100  20.3310740  28.0138520  74.2429970  21.1159620
  27.3195470  73.6370940  19.9148380  13.3979940  68.8572820  25.9661780
  14.0456130  68.3070200  25.5256940  13.8181780  69.1115970  26.7877590
  28.9466560  73.1120050  22.8648420  28.8365840  72.9576090  23.8030690
  29.7074150  72.5840990  22.6223830  27.2932280  69.0514180  29.3231420
  27.9304500  69.6648320  29.6890610  27.4407170  69.0874840  28.3780650
  29.8356830  70.9427970  16.1054560  30.7606140  70.8109150  15.8972850
  29.8132620  71.0220790  17.0591010  29.9095320  71.7138630  18.7311270
  29.1146820  71.6483750  19.2604180  30.1138600  72.6489270  18.7196620
  13.1511940  69.0128490  28.7087100  12.8026760  69.4692310  29.4745280
  12.8199640  68.1185620  28.7909530  20.6636760  70.2040370  32.2306520
  20.6025650  70.7962200  32.9801930  21.6037140  70.0966330  32.0856780
  23.3011320  69.8610430  31.8698810  23.9151730  70.1789720  31.2079890
  23.8460880  69.3759020  32.4894670  13.8232580  68.5404690  31.9837870
  14.3715570  68.3592740  31.2203980  13.8887890  67.7498800  32.5194180
  24.0419360  68.4242570  28.1968100  23.1679200  68.7577680  27.9941030
  23.9330110  67.9515750  29.0219970  24.9491340  70.6313440  29.5809820
  24.6204700  69.8165200  29.2011550  25.8973640  70.5883250  29.4575510
  21.7894180  69.3412410  27.1361010  21.0065970  69.8157910  27.4157770
  21.4957110  68.4367240  27.0274190  26.3415250  70.0435510  25.1810100
  26.7823340  69.9880610  24.3331700  26.0722840  70.9593520  25.2520280
  28.2053820  69.6750750  23.1918920  28.1442220  68.7311970  23.0449940
  28.9845850  69.7830840  23.7372380  13.1334590  69.6459890  19.6574730
  13.8913950  69.7588770  19.0838760  12.6711760  70.4829090  19.6118160
  19.6748400  71.7599160  22.6477040  18.8622910  71.3856050  22.3072920
  20.1790040  71.0044240  22.9498230  24.1773380  68.4241610  23.8860110
  24.7802750  68.9961820  24.3608630  23.4366370  68.9881050  23.6634010
  27.3207980  68.8263170  19.1600390  27.5158610  69.7246620  19.4267820
  26.5337850  68.5950250  19.6533340  15.5059740  70.1723940  18.1976700
  16.0352500  69.3853740  18.0684650  16.1388060  70.8515130  18.4312230
  17.6997580  69.9099080  21.2522090  17.0700320  69.2086390  21.4192220
  17.1602720  70.6703210  21.0355250  17.8253140  69.1883060  33.6874580
  17.5437410  69.6916660  32.9235400  18.2072840  68.3904810  33.3216710
  24.4268600  68.6036640  34.2655050  24.3134050  68.9231250  35.1606570
  25.2438340  69.0049150  33.9692330  23.3326750  76.6229110   4.6289790
  23.2520800  75.7083720   4.3581500  22.9191170  77.1196180   3.9229500
  11.8535580  76.2735480   7.0556910  12.4251690  75.5057680   7.0560550
  11.8537120  76.5724240   6.1463520  13.0960450  71.6819840   8.8425840
  12.9163290  70.7845590   9.1228600  12.6940530  72.2291710   9.5172790
  21.9358950  73.8835700   6.7438150  22.3123770  73.0107580   6.6311820
  21.8378460  74.2194400   5.8528590  16.0663960  72.2561330   2.2055590
  16.1730710  73.1565060   2.5124350  15.1556320  72.2079300   1.9150240
  25.7183070  71.3786140   3.6766490  26.5392690  70.8882710   3.7191970
  25.7517150  71.9683800   4.4298330  13.7147120  74.1780340   7.4508180
  14.3957230  74.4418710   8.0695580  13.3995170  73.3381210   7.7846190
  17.9071690  75.2247700   6.5380770  18.4149910  75.7228670   7.1785790
  18.4384930  74.4482900   6.3620130  30.0082620  73.3952890  10.2410120
  29.3034790  73.7834600   9.7225230  30.2740540  74.0903180  10.8431050
  16.1907790  69.8646260  10.8044190  16.1926230  70.3818650   9.9990090
  15.3612100  69.3876440  10.7814120  25.9544550  73.3186520   6.4494030
  25.2500120  73.6071410   7.0297140  26.3156710  74.1286630   6.0893590
  15.8723120  71.5756220   8.8114640  16.2139930  72.4198270   8.5168510
  14.9338930  71.7239960   8.9279980  29.0231470  72.7641310   6.8403240
  28.0756380  72.7980290   6.9718670  29.3481460  73.5780260   7.2252600
  19.5551010  69.0638490   5.1359230  19.8625990  68.5085380   4.4194730
  18.6251710  69.1982950   4.9532220  21.9431770  77.1287320   1.8719350
  21.0161050  77.0624700   2.1007820  22.0956590  78.0667450   1.7574590
  25.4155620  74.8692160   9.7920410  25.0026800  75.6945870  10.0460400
  24.6831570  74.2837200   9.5996770  17.5488410  77.6552060   4.6539080
  17.1445410  76.9429310   4.1584980  17.6351530  77.3105300   5.5427120
  16.2617030  74.4295270   8.4338120  16.8131620  74.5390610   7.6591370
  16.7760540  74.8032870   9.1493350  14.2493040  76.5497040   2.1545730
  14.1290640  77.2759130   1.5427000  13.9393930  75.7799950   1.6773640
  28.9412190  73.9208740  13.6742530  28.3256460  74.4288410  13.1457990
  28.6208610  73.0207070  13.6168470  16.7156700  69.8932110   5.5369400
  16.2724850  70.6741650   5.2053920  17.2741690  70.2162000   6.2440340
  21.0026510  72.7600630  11.1404720  20.5405880  72.9683650  11.9524660
  20.6004620  71.9459980  10.8375390  26.0031020  73.9809580  12.2701380
  25.1524610  73.6815330  12.5910450  25.8432810  74.2251590  11.3585200
  23.0980730  75.4811330  14.3700170  23.4234140  74.6475080  14.0302400
  23.8861060  76.0039850  14.5178500  18.7532600  70.4379440   7.3959000
  19.0504930  71.3442270   7.3151020  19.3018160  69.9498220   6.7818570
  16.5070920  75.0165680   3.2650650  16.2811840  74.8002850   4.1697270
  15.7263450  75.4494140   2.9196620  18.9470130  75.9151260  13.9310920
  18.8513730  74.9745990  13.7811320  19.7902110  76.1366330  13.5358990
  22.3433550  73.6592590   3.8944580  22.7363120  73.9764790   3.0813270
  22.7050400  72.7804470   4.0089100  14.0780670  72.3264930  12.0844700
  13.6844060  73.1740140  12.2917480  13.3899070  71.6891300  12.2753340
  20.6525720  72.4099900  15.1541440  19.9624040  72.2172100  15.7887530
  21.3958020  72.6934540  15.6865740  11.3797720  70.2493390   6.1174780
  11.0910770  70.8196250   6.8299760  12.1243480  69.7697840   6.4806010
  22.9288690  76.2498340   7.9895360  22.1969810  76.7585150   8.3385460
  22.5313030  75.4328320   7.6884140  19.3666080  72.9252540   6.3947850
  19.3702140  72.4842490   5.5452390  20.2617200  73.2469870   6.5019670
  15.2168460  72.8079030   5.3542060  14.8768510  73.2854260   6.1109110
  14.4545780  72.3544150   4.9943160  23.3914600  71.7032020   7.4018300
  23.4087340  72.1540670   8.2460150  23.1430180  70.8037660   7.6151740
  26.8185350  69.1164200  13.2404680  27.1431120  68.3853860  13.7662660
  26.8541860  68.7977840  12.3385670  19.6674050  76.9854320   8.1413260
  20.0344180  76.5112890   8.8874600  19.4779110  77.8595890   8.4821600
  12.5314540  71.7298010   4.2706730  12.2461460  71.3653680   5.1085350
  12.4693400  70.9978470   3.6569870  17.4573420  76.0262960  10.4597470
  17.1530490  76.9054940  10.6847830  18.4119880  76.0862750  10.4954910
  13.5137150  76.8665700  11.6068830  13.1552090  77.5319550  12.1942170
  13.2191710  76.0349250  11.9781450  16.7150270  77.3249940  14.4908380
  16.4150410  77.4707120  13.5936200  17.4861510  76.7655230  14.3981770
  15.0891790  68.5967820   2.8234230  14.9606420  68.5885720   3.7719150
  14.2653810  68.9350910   2.4725240  12.0885720  70.3558940  12.2840930
  11.3744240  70.5555860  12.8893540  12.5080760  69.5798510  12.6555730
  23.5824500  72.8481250  10.0342380  23.9505320  72.0276460  10.3621950
  22.7222700  72.9083140  10.4498030  18.9170560  74.0824140   2.2587820
  18.2086710  74.5510480   2.7001430  19.2015040  73.4246150   2.8933010
  20.5426490  75.5020840  10.2580350  21.0411740  75.9766660  10.9232200
  20.6849440  74.5784360  10.4650380  22.9485990  70.8074800   3.6983610
  22.8253770  70.8260930   2.7493120  23.8970550  70.8553740   3.8182010
  27.7493350  71.7188800  11.1008740  27.2466950  72.4594200  11.4402550
  28.5650010  72.1072800  10.7845530  26.0415360  76.9621980   4.5470100
  25.1005500  76.9772210   4.7217790  26.3559430  76.1757940   4.9930400
  12.2414560  77.8981570  14.0263120  12.7453580  77.3188850  14.5979350
  11.5021980  78.1821800  14.5639490  14.2737640  76.0411160  14.9213190
  14.3142980  75.7425030  15.8298420  15.1283140  76.4418770  14.7620710
  16.2143450  74.6203260  12.8887680  15.6839910  74.1294210  12.2611020
  16.8831520  75.0487460  12.3545610  25.5843680  76.4268880  14.6568020
  26.1664450  75.6721200  14.5688500  25.7605450  76.9576320  13.8799500
  16.7015750  71.5865630  12.9684970  16.6072620  70.9686380  12.2435840
  16.1213140  72.3131920  12.7414880  19.4677190  70.1438870  10.0012360
  19.0194490  70.1663130   9.1557910  18.8342390  69.7457890  10.5982660
  22.2100640  76.7709380  12.0062640  22.3296850  76.1750520  12.7457480
  23.0694640  76.8079070  11.5863940  24.5488540  77.3246570  10.5825150
  24.0223760  77.8489190   9.9790290  24.8919880  77.9573960  11.2134880
  18.9769410  73.3130730  13.2638460  19.5669100  73.0046580  13.9516280
  18.1589650  72.8410480  13.4198360  23.7962840  72.9296540  13.4971480
  23.1078360  72.2678080  13.4321470  24.5168860  72.4834810  13.9419940
  12.3048300  77.2862830   4.3973310  11.6497140  77.0174470   3.7533010
  13.1426250  77.1767310   3.9475290  28.7528470  76.9928260   2.3167600
  28.3772070  76.2256190   1.8848890  28.0231590  77.3750960   2.8042530
  13.3424230  77.6715400   8.9376650  13.7097270  77.5842800   9.8172670
  12.7735050  76.9081950   8.8383510  28.1428090  76.1399780  11.9507120
  27.9114180  75.9112530  11.0505070  28.4032640  77.0599330  11.9052010
  12.8940230  74.5824490  12.8435070  11.9996280  74.5491250  13.1828780
  13.4337780  74.7811280  13.6086320  26.5816160  71.3656210  14.7286820
  27.4586340  71.3739610  15.1120820  26.5937000  70.6287050  14.1179170
  28.0279430  75.2185750   5.6174840  28.5516910  74.7248400   4.9865010
  28.6138850  75.3536110   6.3622410  28.2069150  75.3025620   9.1394390
  27.2571860  75.2689160   9.2539380  28.3882160  76.2125730   8.9044160
  13.3979940  68.8572820   7.1918290  14.0456130  68.3070200   6.7513450
  13.8181780  69.1115970   8.0134100  28.9466560  73.1120050   4.0904930
  28.8365840  72.9576090   5.0287200  29.7074150  72.5840990   3.8480340
  27.2932280  69.0514180  10.5487930  27.9304500  69.6648320  10.9147120
  27.4407170  69.0874840   9.6037160  13.1511940  69.0128490   9.9343610
  12.8026760  69.4692310  10.7001790  12.8199640  68.1185620  10.0166040
  20.6636760  70.2040370  13.4563030  20.6025650  70.7962200  14.2058440
  21.6037140  70.0966330  13.3113290  23.3011320  69.8610430  13.0955320
  23.9151730  70.1789720  12.4336400  23.8460880  69.3759020  13.7151180
  13.8232580  68.5404690  13.2094380  14.3715570  68.3592740  12.4460490
  13.8887890  67.7498800  13.7450690  24.0419360  68.4242570   9.4224610
  23.1679200  68.7577680   9.2197540  23.9330110  67.9515750  10.2476480
  24.9491340  70.6313440  10.8066330  24.6204700  69.8165200  10.4268060
  25.8973640  70.5883250  10.6832020  21.7894180  69.3412410   8.3617520
  21.0065970  69.8157910   8.6414280  21.4957110  68.4367240   8.2530700
  26.3415250  70.0435510   6.4066610  26.7823340  69.9880610   5.5588210
  26.0722840  70.9593520   6.4776790  28.2053820  69.6750750   4.4175430
  28.1442220  68.7311970   4.2706450  28.9845850  69.7830840   4.9628890
  19.6748400  71.7599160   3.8733550  18.8622910  71.3856050   3.5329430
  20.1790040  71.0044240   4.1754740  24.1773380  68.4241610   5.1116620
  24.7802750  68.9961820   5.5865140  23.4366370  68.9881050   4.8890520
  17.6997580  69.9099080   2.4778600  17.0700320  69.2086390   2.6448730
  17.1602720  70.6703210   2.2611760  17.8253140  69.1883060  14.9131090
  17.5437410  69.6916660  14.1491910  18.2072840  68.3904810  14.5473220
  24.4268600  68.6036640  15.4911560  24.3134050  68.9231250  16.3863080
  25.2438340  69.0049150  15.1948840  23.3326750  57.8485620  79.7263750
  23.2520800  56.9340230  79.4555460  22.9191170  58.3452690  79.0203460
  21.4644790  59.6264640  81.6073020  20.6886890  59.1465080  81.8971590
  22.1157720  58.9470290  81.4329180  15.4810620  59.9384450  82.4848780
  14.6495500  59.6833160  82.8845290  16.0891600  60.0095220  83.2206700
  25.4852220  64.0324830  80.3872150  25.0233750  63.2612070  80.7159320
  26.2977770  64.0590900  80.8924600  15.4611880  63.9724540  82.6806800
  15.7639920  63.0822280  82.5017020  16.2055470  64.5294760  82.4529050
  13.8902570  54.8986340  76.2691170  13.0019270  55.2402310  76.1671050
  14.1743760  54.6986660  75.3772000  11.8535580  57.4991990  82.1530870
  12.4251690  56.7314190  82.1534510  11.8537120  57.7980750  81.2437480
  21.7115530  66.3182840  80.0076140  21.0926970  66.7740340  79.4370580
  22.5667310  66.4734300  79.6065840  20.9053780  62.3021830  81.6143180
  20.8362060  61.3611770  81.4532310  21.6673640  62.3923240  82.1865750
  13.0960450  52.9076350  83.9399800  12.9163290  52.0102100  84.2202560
  12.6940530  53.4548220  84.6146750  21.9358950  55.1092210  81.8412110
  22.3123770  54.2364090  81.7285780  21.8378460  55.4450910  80.9502550
  16.0663960  53.4817840  77.3029550  16.1730710  54.3821570  77.6098310
  15.1556320  53.4335810  77.0124200  25.7183070  52.6042650  78.7740450
  26.5392690  52.1139220  78.8165930  25.7517150  53.1940310  79.5272290
  13.7147120  55.4036850  82.5482140  14.3957230  55.6675220  83.1669540
  13.3995170  54.5637720  82.8820150  17.9071690  56.4504210  81.6354730
  18.4149910  56.9485180  82.2759750  18.4384930  55.6739410  81.4594090
  30.0082620  54.6209400  85.3384080  29.3034790  55.0091110  84.8199190
  30.2740540  55.3159690  85.9405010  16.1907790  51.0902770  85.9018150
  16.1926230  51.6075160  85.0964050  15.3612100  50.6132950  85.8788080
  22.5778880  61.2022080  77.4008050  21.9596150  61.6671530  76.8370770
  23.0902130  61.8949560  77.8177560  17.4410640  60.7297950  84.0791650
  17.1080020  61.3566870  84.7212720  17.6177320  61.2559830  83.2993320
  25.9544550  54.5443030  81.5467990  25.2500120  54.8327920  82.1271100
  26.3156710  55.3543140  81.1867550  15.8723120  52.8012730  83.9088600
  16.2139930  53.6454780  83.6142470  14.9338930  52.9496470  84.0253940
  16.6529740  62.6978750  85.8940830  17.2703740  63.3729830  85.6125280
  15.7922860  63.1066730  85.8028330  11.9462080  61.8878610  74.7747680
  11.5690060  62.3765710  74.0432580  12.2035150  62.5603890  75.4054210
  27.5707330  64.1618160  83.8095470  26.8870850  64.8317270  83.8012140
  28.1101620  64.3598810  83.0440330  29.0231470  53.9897820  81.9377200
  28.0756380  54.0236800  82.0692630  29.3481460  54.8036770  82.3226560
  19.5551010  50.2895000  80.2333190  19.8625990  49.7341890  79.5168690
  18.6251710  50.4239460  80.0506180  25.1066070  66.0062290  82.5240650
  25.1193230  65.6024580  81.6562910  24.5541290  66.7809580  82.4202080
  26.4011490  62.7278510  77.6130820  26.2907820  61.7852840  77.7380240
  26.3979740  63.0894150  78.4993580  24.5051510  60.9092130  83.8523260
  24.9220300  60.6952240  83.0176720  25.2291330  61.1664920  84.4231880
  21.9431770  58.3543830  76.9693310  21.0161050  58.2881210  77.1981780
  22.0956590  59.2923960  76.8548550  21.9300850  54.6260830  73.9660470
  20.9904520  54.7874790  74.0512930  22.2484110  55.3446510  73.4196460
  28.4513610  59.3079350  83.9439500  27.6232240  59.3772440  83.4689630
  29.0464090  59.8933660  83.4755330  25.9729060  59.9164130  77.4728560
  25.3541480  59.5783680  76.8254860  25.9553510  59.2723890  78.1807750
  25.4155620  56.0948670  84.8894370  25.0026800  56.9202380  85.1434360
  24.6831570  55.5093710  84.6970730  17.5488410  58.8808570  79.7513040
  17.1445410  58.1685820  79.2558940  17.6351530  58.5361810  80.6401080
  18.0170110  62.5676130  81.9152250  17.7198400  61.9621600  81.2360030
  18.9669930  62.6053440  81.8041610  16.2617030  55.6551780  83.5312080
  16.8131620  55.7647120  82.7565330  16.7760540  56.0289380  84.2467310
  26.1055720  66.1408000  85.5775350  25.6286280  66.9480190  85.3847960
  25.4217510  65.4886330  85.7301560  24.1493760  59.1550940  74.4801310
  24.5887040  58.3173370  74.3339130  24.8622180  59.7880340  74.5665450
  22.2589140  64.0947010  78.4482550  22.6985050  64.8371340  78.0337940
  22.1976030  64.3373580  79.3721510  27.7310900  50.4093750  72.7942350
  27.4183560  50.5020580  73.6941420  28.4923370  50.9874780  72.7439780
  14.2493040  57.7753550  77.2519690  14.1290640  58.5015640  76.6400960
  13.9393930  57.0056460  76.7747600  11.8878410  60.9468690  83.0588330
  11.9658830  61.0817460  82.1144050  12.5020090  60.2384580  83.2516450
  13.1326040  62.6468880  79.4694510  12.7254120  62.7883470  78.6148110
  14.0239050  62.3629040  79.2665720  24.9259320  67.0816130  75.8045560
  24.7660460  66.7919070  76.7027390  24.7606030  66.3056260  75.2690790
  17.4047700  66.8614660  77.5817180  17.2290180  65.9450200  77.3684980
  16.5503440  67.2201950  77.8214980  24.6285450  64.5903690  74.3643560
  23.9350610  64.5880980  73.7045840  25.3708310  64.1663010  73.9337730
  24.1935380  66.2166400  78.4392050  24.6492330  65.4355780  78.7530670
  24.5327900  66.9273220  78.9833230  11.9437930  61.9882860  85.5982790
  12.1068970  61.5188220  84.7802160  12.4090380  61.4806420  86.2631630
  16.7156700  51.1188620  80.6343360  16.2724850  51.8998160  80.3027880
  17.2741690  51.4418510  81.3414300  19.8315520  50.7399320  75.5149190
  19.2069700  50.7359190  76.2402500  19.7445640  49.8730280  75.1185160
  18.7532600  51.6635950  82.4932960  19.0504930  52.5698780  82.4124980
  19.3018160  51.1754730  81.8792530  16.5070920  56.2422190  78.3624610
  16.2811840  56.0259360  79.2671230  15.7263450  56.6750650  78.0170580
  23.7368680  56.2485560  76.9615260  23.1377570  56.9721360  76.7778880
  24.2848290  56.1862340  76.1791710  22.3433550  54.8849100  78.9918540
  22.7363120  55.2021300  78.1787230  22.7050400  54.0060980  79.1063060
  11.3797720  51.4749900  81.2148740  11.0910770  52.0452760  81.9273720
  12.1243480  50.9954350  81.5779970  11.5667950  55.4170020  72.4251460
  11.4842620  56.3600780  72.5666450  11.2151010  55.2744930  71.5463810
  22.9288690  57.4754850  83.0869320  22.1969810  57.9841660  83.4359420
  22.5313030  56.6584830  82.7858100  19.3666080  54.1509050  81.4921810
  19.3702140  53.7099000  80.6426350  20.2617200  54.4726380  81.5993630
  15.2168460  54.0335540  80.4516020  14.8768510  54.5110770  81.2083070
  14.4545780  53.5800660  80.0917120  19.4286230  55.1521130  74.4828570
  19.5499050  55.1107610  75.4314390  19.0434740  56.0145280  74.3275300
  23.3914600  52.9288530  82.4992260  23.4087340  53.3797180  83.3434110
  23.1430180  52.0294170  82.7125700  18.4407730  57.4622270  73.8811870
  17.8724630  57.0140520  73.2547780  19.1496730  57.8215050  73.3477020
  19.6674050  58.2110830  83.2387220  20.0344180  57.7369400  83.9848560
  19.4779110  59.0852400  83.5795560  12.5314540  52.9554520  79.3680690
  12.2461460  52.5910190  80.2059310  12.4693400  52.2234980  78.7543830
  17.4573420  57.2519470  85.5571430  17.1530490  58.1311450  85.7821790
  18.4119880  57.3119260  85.5928870  15.9855210  61.4580460  76.1538280
  15.2117470  60.9178080  75.9937000  16.7149840  60.9387070  75.8156040
  26.7443190  60.4545820  81.9464670  27.4642310  60.9501110  81.5560780
  26.5425010  59.7763710  81.3018540  22.2053130  51.8483780  76.0894060
  21.3917740  51.3496950  76.0139370  22.0115080  52.6882030  75.6730410
  24.9201520  56.2203430  74.3856220  25.8081140  56.5320660  74.2107560
  24.8906610  55.3475680  73.9936800  16.0292610  61.1260840  79.7917090
  16.5471280  60.3229100  79.7373980  15.5776630  61.0639980  80.6333920
  20.9162110  62.3927120  75.0644390  21.2577810  63.1369350  74.5687710
  20.0874820  62.7058240  75.4269220  27.1915790  57.5315270  73.8536080
  27.1079510  57.9629490  73.0032520  27.9109980  57.9913620  74.2862900
  28.2203040  64.3857530  76.5818210  27.5779200  63.7313150  76.8561930
  27.8333700  64.7912620  75.8058880  23.7989520  61.7142960  80.4289900
  24.1513340  61.1171090  79.7691270  22.9151850  61.3887190  80.5998150
  19.8852800  62.4740650  77.8360310  20.5723930  63.0209860  78.2167900
  19.0985220  63.0181380  77.8709920  12.0245200  58.0913470  73.3277390
  12.8940050  58.3738270  73.6113310  11.5335520  58.9049340  73.2126200
  19.1880010  59.4786680  77.4485670  19.6442790  60.2891930  77.6745860
  18.8368220  59.1609820  78.2804160  21.4912620  64.9893020  84.6777970
  22.1354840  65.1952400  85.3551390  21.8542060  64.2281420  84.2248820
  15.0891790  49.8224330  77.9208190  14.9606420  49.8142230  78.8693110
  14.2653810  50.1607420  77.5699200  22.7644700  62.9925370  83.3955420
  23.4066930  62.2918530  83.5087590  23.2894050  63.7723810  83.2152310
  26.6100420  63.2773990  73.1194560  26.3838000  62.5604430  73.7119200
  26.2196620  63.0286430  72.2816310  12.3916450  67.3040850  73.8939020
  12.7514090  67.9030190  73.2396290  12.2508790  67.8500740  74.6674050
  26.1916670  61.1945930  74.7808720  25.9038370  61.6558620  75.5686600
  26.9868840  60.7343700  75.0492940  18.4085070  64.6872050  74.7112690
  18.3995170  65.4201740  74.0957200  17.4883430  64.4403630  74.8039650
  14.0091710  59.9086940  75.4559450  13.4019660  60.6485840  75.4654750
  14.4841060  59.9986300  74.6297650  23.5824500  54.0737760  85.1316340
  23.9505320  53.2532970  85.4595910  22.7222700  54.1339650  85.5471990
  26.9486530  53.0294700  75.9403900  26.3199690  53.1340370  75.2262130
  26.4538450  53.2491480  76.7297780  21.3944670  64.7500290  73.3737880
  21.4956650  64.5464280  72.4439860  20.4946410  64.4958570  73.5785660
  18.9170560  55.3080650  77.3561780  18.2086710  55.7766990  77.7975390
  19.2015040  54.6502660  77.9906970  20.5426490  56.7277350  85.3554310
  21.0411740  57.2023170  86.0206160  20.6849440  55.8040870  85.5624340
  22.9485990  52.0331310  78.7957570  22.8253770  52.0517440  77.8467080
  23.8970550  52.0810250  78.9155970  20.0362780  67.2686610  78.0685550
  20.2904280  67.2308000  77.1464920  19.0875260  67.1419940  78.0613800
  17.1205580  53.6165730  74.7312490  17.9696110  54.0535880  74.6652680
  16.7536850  53.9285990  75.5584550  26.0415360  58.1878490  79.6444060
  25.1005500  58.2028720  79.8191750  26.3559430  57.4014450  80.0904360
  16.0197000  59.8698090  73.2048020  16.7860270  59.7579450  73.7673450
  16.0971690  59.1736060  72.5524790  14.7143760  57.3023160  73.8880910
  14.7947350  56.3550670  73.9998310  15.6063510  57.6330040  73.9941570
  28.0440940  65.3587340  81.3198320  28.1688360  66.1818510  81.7922130
  28.9106500  65.1478070  80.9722470  15.5158470  67.4518550  80.9915450
  16.2520950  66.9034010  81.2624020  15.8999390  68.3174560  80.8521440
  12.4003950  63.5192120  76.8656960  11.4743730  63.7613260  76.8562370
  12.8660380  64.3466380  76.7441710  18.6260780  66.6248860  72.8141020
  19.4189390  66.9137690  72.3622810  18.1065130  66.1941030  72.1353500
  27.6790950  65.8518990  74.2377760  27.3932460  65.4384130  73.4231940
  27.4810500  66.7806700  74.1178280  19.1438180  61.8452270  72.6783370
  19.0388820  61.2304620  73.4044750  18.9762400  61.3218160  71.8946380
  22.3840910  60.9072300  73.2825360  21.8351010  61.3541600  73.9268100
  23.0060170  60.4021550  73.8063030  18.0516030  59.8663220  75.1790660
  18.4732450  59.7003090  76.0222050  18.1766870  59.0563450  74.6845800
  20.5643670  58.8900830  72.4267760  21.0849330  58.1749850  72.0608910
  21.2112070  59.5286700  72.7268270  19.4677190  51.3695380  85.0986320
  19.0194490  51.3919640  84.2531870  18.8342390  50.9714400  85.6956620
  19.8736740  60.2649710  85.7198760  20.2924850  61.1082440  85.5475000
  18.9545370  60.4021750  85.4905540  16.9474930  55.9396450  72.1248820
  16.7463990  55.0763810  72.4862160  16.7766980  55.8529810  71.1870420
  24.4263240  50.7504680  74.6535700  24.7065530  49.9072580  75.0095120
  23.6528970  50.9827790  75.1674450  15.7457730  53.0397070  72.1126700
  16.0483630  53.0464500  71.2045850  16.4852320  52.6894930  72.6094360
  18.9642660  51.9831690  73.0982900  18.6164660  51.3055680  72.5185350
  19.1655430  51.5221200  73.9126290  21.1291700  66.9712440  74.7169500
  22.0242490  67.3097410  74.7388260  21.1609330  66.2491850  74.0893780
  14.7687860  62.3439490  72.9456500  15.2062730  62.8869160  73.6014080
  15.2535590  61.5186440  72.9552840  11.9833660  65.1328520  80.3976760
  12.3136670  64.2649580  80.1655400  12.4124660  65.3387040  81.2281720
  16.5795580  63.4637530  78.0578730  16.2791120  63.3402500  78.9582640
  16.4733070  62.6046120  77.6494460  12.4723870  65.9999110  83.1358390
  12.0354860  66.1799910  83.9682540  13.0401550  66.7573730  82.9940110
  29.3487500  63.2433930  72.7605410  28.5180460  63.3110580  73.2312640
  29.5259330  64.1338050  72.4572270  28.8043960  59.9881410  75.2639610
  29.5662870  60.5578060  75.3699300  28.8198330  59.4208610  76.0347920
  12.3048300  58.5119340  79.4947270  11.6497140  58.2430980  78.8506970
  13.1426250  58.4023820  79.0449250  29.8103930  60.8431510  80.1081540
  30.1812760  60.0598830  79.7017510  30.4505860  61.5320610  79.9298840
  26.7937690  62.2268090  85.5211860  25.9797530  62.6565250  85.7837650
  27.2011890  62.8386500  84.9080910  28.8563130  60.2815780  72.4212130
  29.1311970  61.1894660  72.2931350  28.6673870  60.2178310  73.3574120
  25.2538740  53.3060630  73.7165760  25.6723620  53.1191610  72.8762420
  24.9474800  52.4539680  74.0268690  28.7528470  58.2184770  77.4141560
  28.3772070  57.4512700  76.9822850  28.0231590  58.6007470  77.9016490
  13.3424230  58.8971910  84.0350610  13.7097270  58.8099310  84.9146630
  12.7735050  58.1338460  83.9357470  11.5186380  55.7218270  75.4372600
  10.6150460  55.9848470  75.2624260  12.0027000  55.9929440  74.6572560
  28.0279430  56.4442260  80.7148800  28.5516910  55.9504910  80.0838970
  28.6138850  56.5792620  81.4596370  28.2069150  56.5282130  84.2368350
  27.2571860  56.4945670  84.3513340  28.3882160  57.4382240  84.0018120
  14.0613590  54.7783810  73.3466980  14.7705290  54.3567030  72.8614260
  13.3453530  54.8459040  72.7150330  13.7087750  50.8323140  72.3869630
  14.4315880  51.3732080  72.7050850  13.9812270  50.5586560  71.5111170
  27.5179400  55.7015610  76.6541210  28.0138520  55.4686480  77.4390090
  27.3195470  54.8627450  76.2378850  13.3979940  50.0829330  82.2892250
  14.0456130  49.5326710  81.8487410  13.8181780  50.3372480  83.1108060
  28.9466560  54.3376560  79.1878890  28.8365840  54.1832600  80.1261160
  29.7074150  53.8097500  78.9454300  27.2932280  50.2770690  85.6461890
  27.9304500  50.8904830  86.0121080  27.4407170  50.3131350  84.7011120
  29.8356830  52.1684480  72.4285030  30.7606140  52.0365660  72.2203320
  29.8132620  52.2477300  73.3821480  29.9095320  52.9395140  75.0541740
  29.1146820  52.8740260  75.5834650  30.1138600  53.8745780  75.0427090
  26.8513740  66.9786690  79.0480130  27.4472810  66.6571260  78.3714550
  27.1091890  66.5058510  79.8393400  13.1511940  50.2385000  85.0317570
  12.8026760  50.6948820  85.7975750  12.8199640  49.3442130  85.1140000
  18.4582340  64.9664190  84.7980480  18.2173700  65.2338750  83.9111000
  19.3984980  65.1369920  84.8531340  29.7186500  66.9858570  85.5991120
  29.2244780  67.3827440  84.8818250  29.1099790  66.3607780  85.9928400
  24.0419360  49.6499080  84.5198570  23.1679200  49.9834190  84.3171500
  23.9330110  49.1772260  85.3450440  24.9491340  51.8569950  85.9040290
  24.6204700  51.0421710  85.5242020  25.8973640  51.8139760  85.7805980
  27.4025950  67.6281990  82.8777860  26.9428920  68.3797800  82.5035880
  26.7738410  66.9088460  82.8192660  14.2276570  63.7225230  85.2676580
  13.5010630  63.1030520  85.2002530  14.2885720  64.1165840  84.3974660
  17.8321670  65.9370230  82.0525990  18.3486690  65.3257590  81.5274250
  18.4819050  66.4399010  82.5437000  20.5717170  66.8278720  82.8794970
  20.8594980  66.5733020  82.0027980  21.0840390  66.2756080  83.4700540
  21.7894180  50.5668920  83.4591480  21.0065970  51.0414420  83.7388240
  21.4957110  49.6623750  83.3504660  26.3415250  51.2692020  81.5040570
  26.7823340  51.2137120  80.6562170  26.0722840  52.1850030  81.5750750
  28.2053820  50.9007260  79.5149390  28.1442220  49.9568480  79.3680410
  28.9845850  51.0087350  80.0602850  12.5106570  67.0399620  78.4773340
  12.3428610  66.4070300  79.1755230  11.6441080  67.2459020  78.1267530
  13.1334590  50.8716400  75.9805200  13.8913950  50.9845280  75.4069230
  12.6711760  51.7085600  75.9348630  19.6748400  52.9855670  78.9707510
  18.8622910  52.6112560  78.6303390  20.1790040  52.2300750  79.2728700
  24.1773380  49.6498120  80.2090580  24.7802750  50.2218330  80.6839100
  23.4366370  50.2137560  79.9864480  27.3207980  50.0519680  75.4830860
  27.5158610  50.9503130  75.7498290  26.5337850  49.8206760  75.9763810
  14.1169270  65.7332850  75.9223480  13.5916890  66.1140880  75.2185440
  14.0413850  66.3583620  76.6433190  15.5059740  51.3980450  74.5207170
  16.0352500  50.6110250  74.3915120  16.1388060  52.0771640  74.7542700
  17.6997580  51.1355590  77.5752560  17.0700320  50.4342900  77.7422690
  17.1602720  51.8959720  77.3585720  28.8734590  67.2920390  77.2437420
  29.0486780  66.6058130  76.5998340  28.1756160  67.8167440  76.8514090
  16.7162240  67.6815230  74.7972730  17.4481060  67.3974510  74.2496620
  16.9755910  67.4428510  75.6872110  15.8777030  63.7979960  74.8019060
  15.2485910  64.2665060  75.3504890  15.9924860  62.9529180  75.2365250
  23.3326750  57.8485620  60.9520260  23.2520800  56.9340230  60.6811970
  22.9191170  58.3452690  60.2459970  21.4644790  59.6264640  62.8329530
  20.6886890  59.1465080  63.1228100  22.1157720  58.9470290  62.6585690
  15.4810620  59.9384450  63.7105290  14.6495500  59.6833160  64.1101800
  16.0891600  60.0095220  64.4463210  25.4852220  64.0324830  61.6128660
  25.0233750  63.2612070  61.9415830  26.2977770  64.0590900  62.1181110
  15.4611880  63.9724540  63.9063310  15.7639920  63.0822280  63.7273530
  16.2055470  64.5294760  63.6785560  13.8902570  54.8986340  57.4947680
  13.0019270  55.2402310  57.3927560  14.1743760  54.6986660  56.6028510
  11.8535580  57.4991990  63.3787380  12.4251690  56.7314190  63.3791020
  11.8537120  57.7980750  62.4693990  21.7115530  66.3182840  61.2332650
  21.0926970  66.7740340  60.6627090  22.5667310  66.4734300  60.8322350
  20.9053780  62.3021830  62.8399690  20.8362060  61.3611770  62.6788820
  21.6673640  62.3923240  63.4122260  13.0960450  52.9076350  65.1656310
  12.9163290  52.0102100  65.4459070  12.6940530  53.4548220  65.8403260
  21.9358950  55.1092210  63.0668620  22.3123770  54.2364090  62.9542290
  21.8378460  55.4450910  62.1759060  16.0663960  53.4817840  58.5286060
  16.1730710  54.3821570  58.8354820  15.1556320  53.4335810  58.2380710
  25.7183070  52.6042650  59.9996960  26.5392690  52.1139220  60.0422440
  25.7517150  53.1940310  60.7528800  13.7147120  55.4036850  63.7738650
  14.3957230  55.6675220  64.3926050  13.3995170  54.5637720  64.1076660
  17.9071690  56.4504210  62.8611240  18.4149910  56.9485180  63.5016260
  18.4384930  55.6739410  62.6850600  30.0082620  54.6209400  66.5640590
  29.3034790  55.0091110  66.0455700  30.2740540  55.3159690  67.1661520
  16.1907790  51.0902770  67.1274660  16.1926230  51.6075160  66.3220560
  15.3612100  50.6132950  67.1044590  22.5778880  61.2022080  58.6264560
  21.9596150  61.6671530  58.0627280  23.0902130  61.8949560  59.0434070
  17.4410640  60.7297950  65.3048160  17.1080020  61.3566870  65.9469230
  17.6177320  61.2559830  64.5249830  25.9544550  54.5443030  62.7724500
  25.2500120  54.8327920  63.3527610  26.3156710  55.3543140  62.4124060
  15.8723120  52.8012730  65.1345110  16.2139930  53.6454780  64.8398980
  14.9338930  52.9496470  65.2510450  16.6529740  62.6978750  67.1197340
  17.2703740  63.3729830  66.8381790  15.7922860  63.1066730  67.0284840
  11.9462080  61.8878610  56.0004190  11.5690060  62.3765710  55.2689090
  12.2035150  62.5603890  56.6310720  27.5707330  64.1618160  65.0351980
  26.8870850  64.8317270  65.0268650  28.1101620  64.3598810  64.2696840
  29.0231470  53.9897820  63.1633710  28.0756380  54.0236800  63.2949140
  29.3481460  54.8036770  63.5483070  19.5551010  50.2895000  61.4589700
  19.8625990  49.7341890  60.7425200  18.6251710  50.4239460  61.2762690
  25.1066070  66.0062290  63.7497160  25.1193230  65.6024580  62.8819420
  24.5541290  66.7809580  63.6458590  26.4011490  62.7278510  58.8387330
  26.2907820  61.7852840  58.9636750  26.3979740  63.0894150  59.7250090
  24.5051510  60.9092130  65.0779770  24.9220300  60.6952240  64.2433230
  25.2291330  61.1664920  65.6488390  21.9431770  58.3543830  58.1949820
  21.0161050  58.2881210  58.4238290  22.0956590  59.2923960  58.0805060
  21.9300850  54.6260830  55.1916980  20.9904520  54.7874790  55.2769440
  22.2484110  55.3446510  54.6452970  28.4513610  59.3079350  65.1696010
  27.6232240  59.3772440  64.6946140  29.0464090  59.8933660  64.7011840
  25.9729060  59.9164130  58.6985070  25.3541480  59.5783680  58.0511370
  25.9553510  59.2723890  59.4064260  25.4155620  56.0948670  66.1150880
  25.0026800  56.9202380  66.3690870  24.6831570  55.5093710  65.9227240
  17.5488410  58.8808570  60.9769550  17.1445410  58.1685820  60.4815450
  17.6351530  58.5361810  61.8657590  18.0170110  62.5676130  63.1408760
  17.7198400  61.9621600  62.4616540  18.9669930  62.6053440  63.0298120
  16.2617030  55.6551780  64.7568590  16.8131620  55.7647120  63.9821840
  16.7760540  56.0289380  65.4723820  26.1055720  66.1408000  66.8031860
  25.6286280  66.9480190  66.6104470  25.4217510  65.4886330  66.9558070
  17.1088540  62.3057820  69.7916560  16.2117070  62.5297790  70.0389960
  17.1341410  62.4292760  68.8427960  24.1493760  59.1550940  55.7057820
  24.5887040  58.3173370  55.5595640  24.8622180  59.7880340  55.7921960
  15.9359760  59.1771140  68.3673930  15.7967530  60.0493940  68.7361330
  15.0541120  58.8343950  68.2221870  22.2589140  64.0947010  59.6739060
  22.6985050  64.8371340  59.2594450  22.1976030  64.3373580  60.5978020
  17.7340110  65.1192840  70.5759080  17.7055540  65.5235790  69.7087510
  17.5705080  64.1903200  70.4130680  14.2493040  57.7753550  58.4776200
  14.1290640  58.5015640  57.8657470  13.9393930  57.0056460  58.0004110
  29.6854930  65.9019940  71.8723250  30.1614650  66.3802830  72.5512330
  30.3062090  65.8337430  71.1468750  11.8878410  60.9468690  64.2844840
  11.9658830  61.0817460  63.3400560  12.5020090  60.2384580  64.4772960
  13.1326040  62.6468880  60.6951020  12.7254120  62.7883470  59.8404620
  14.0239050  62.3629040  60.4922230  29.0888180  63.0932790  69.0323260
  29.2151240  62.8544670  68.1140440  29.1309560  62.2617330  69.5045340
  22.9504920  66.7960790  67.6018070  23.4649590  66.7068800  68.4040500
  22.1074000  67.1420490  67.8945980  24.9259320  67.0816130  57.0302070
  24.7660460  66.7919070  57.9283900  24.7606030  66.3056260  56.4947300
  17.4047700  66.8614660  58.8073690  17.2290180  65.9450200  58.5941490
  16.5503440  67.2201950  59.0471490  24.6285450  64.5903690  55.5900070
  23.9350610  64.5880980  54.9302350  25.3708310  64.1663010  55.1594240
  24.1935380  66.2166400  59.6648560  24.6492330  65.4355780  59.9787180
  24.5327900  66.9273220  60.2089740  28.9412190  55.1465250  69.9973000
  28.3256460  55.6544920  69.4688460  28.6208610  54.2463580  69.9398940
  11.9437930  61.9882860  66.8239300  12.1068970  61.5188220  66.0058670
  12.4090380  61.4806420  67.4888140  16.7156700  51.1188620  61.8599870
  16.2724850  51.8998160  61.5284390  17.2741690  51.4418510  62.5670810
  21.0026510  53.9857140  67.4635190  20.5405880  54.1940160  68.2755130
  20.6004620  53.1716490  67.1605860  26.0031020  55.2066090  68.5931850
  25.1524610  54.9071840  68.9140920  25.8432810  55.4508100  67.6815670
  23.0980730  56.7067840  70.6930640  23.4234140  55.8731590  70.3532870
  23.8861060  57.2296360  70.8408970  18.7532600  51.6635950  63.7189470
  19.0504930  52.5698780  63.6381490  19.3018160  51.1754730  63.1049040
  16.5070920  56.2422190  59.5881120  16.2811840  56.0259360  60.4927740
  15.7263450  56.6750650  59.2427090  23.7368680  56.2485560  58.1871770
  23.1377570  56.9721360  58.0035390  24.2848290  56.1862340  57.4048220
  18.9470130  57.1407770  70.2541390  18.8513730  56.2002500  70.1041790
  19.7902110  57.3622840  69.8589460  22.3433550  54.8849100  60.2175050
  22.7363120  55.2021300  59.4043740  22.7050400  54.0060980  60.3319570
  14.0780670  53.5521440  68.4075170  13.6844060  54.3996650  68.6147950
  13.3899070  52.9147810  68.5983810  20.6525720  53.6356410  71.4771910
  19.9624040  53.4428610  72.1118000  21.3958020  53.9191050  72.0096210
  11.3797720  51.4749900  62.4405250  11.0910770  52.0452760  63.1530230
  12.1243480  50.9954350  62.8036480  11.5667950  55.4170020  53.6507970
  11.4842620  56.3600780  53.7922960  11.2151010  55.2744930  52.7720320
  22.9288690  57.4754850  64.3125830  22.1969810  57.9841660  64.6615930
  22.5313030  56.6584830  64.0114610  19.3666080  54.1509050  62.7178320
  19.3702140  53.7099000  61.8682860  20.2617200  54.4726380  62.8250140
  15.2168460  54.0335540  61.6772530  14.8768510  54.5110770  62.4339580
  14.4545780  53.5800660  61.3173630  19.4286230  55.1521130  55.7085080
  19.5499050  55.1107610  56.6570900  19.0434740  56.0145280  55.5531810
  23.3914600  52.9288530  63.7248770  23.4087340  53.3797180  64.5690620
  23.1430180  52.0294170  63.9382210  18.4407730  57.4622270  55.1068380
  17.8724630  57.0140520  54.4804290  19.1496730  57.8215050  54.5733530
  26.8185350  50.3420710  69.5635150  27.1431120  49.6110370  70.0893130
  26.8541860  50.0234350  68.6616140  13.5176910  61.3634290  68.9835110
  13.1331700  60.7227960  69.5818070  13.8289100  62.0670410  69.5529840
  19.6674050  58.2110830  64.4643730  20.0344180  57.7369400  65.2105070
  19.4779110  59.0852400  64.8052070  12.5314540  52.9554520  60.5937200
  12.2461460  52.5910190  61.4315820  12.4693400  52.2234980  59.9800340
  17.4573420  57.2519470  66.7827940  17.1530490  58.1311450  67.0078300
  18.4119880  57.3119260  66.8185380  15.9855210  61.4580460  57.3794790
  15.2117470  60.9178080  57.2193510  16.7149840  60.9387070  57.0412550
  26.7443190  60.4545820  63.1721180  27.4642310  60.9501110  62.7817290
  26.5425010  59.7763710  62.5275050  22.2053130  51.8483780  57.3150570
  21.3917740  51.3496950  57.2395880  22.0115080  52.6882030  56.8986920
  22.1261990  60.5254880  69.0590180  22.0599300  59.6050550  68.8047770
  21.4967130  60.6230320  69.7734820  24.9201520  56.2203430  55.6112730
  25.8081140  56.5320660  55.4364070  24.8906610  55.3475680  55.2193310
  16.0292610  61.1260840  61.0173600  16.5471280  60.3229100  60.9630490
  15.5776630  61.0639980  61.8590430  20.9162110  62.3927120  56.2900900
  21.2577810  63.1369350  55.7944220  20.0874820  62.7058240  56.6525730
  13.5137150  58.0922210  67.9299300  13.1552090  58.7576060  68.5172640
  13.2191710  57.2605760  68.3011920  16.7150270  58.5506450  70.8138850
  16.4150410  58.6963630  69.9166670  17.4861510  57.9911740  70.7212240
  22.0578720  63.3475450  68.8093980  22.0723260  62.4156410  68.5912890
  21.3503820  63.4335210  69.4483750  27.1915790  57.5315270  55.0792590
  27.1079510  57.9629490  54.2289030  27.9109980  57.9913620  55.5119410
  28.2689930  59.9882790  68.1562560  27.5438120  60.5811570  67.9591950
  28.7965390  59.9806330  67.3575930  28.2203040  64.3857530  57.8074720
  27.5779200  63.7313150  58.0818440  27.8333700  64.7912620  57.0315390
  23.7989520  61.7142960  61.6546410  24.1513340  61.1171090  60.9947780
  22.9151850  61.3887190  61.8254660  19.8852800  62.4740650  59.0616820
  20.5723930  63.0209860  59.4424410  19.0985220  63.0181380  59.0966430
  12.0245200  58.0913470  54.5533900  12.8940050  58.3738270  54.8369820
  11.5335520  58.9049340  54.4382710  19.1880010  59.4786680  58.6742180
  19.6442790  60.2891930  58.9002370  18.8368220  59.1609820  59.5060670
  21.4912620  64.9893020  65.9034480  22.1354840  65.1952400  66.5807900
  21.8542060  64.2281420  65.4505330  15.0891790  49.8224330  59.1464700
  14.9606420  49.8142230  60.0949620  14.2653810  50.1607420  58.7955710
  22.7644700  62.9925370  64.6211930  23.4066930  62.2918530  64.7344100
  23.2894050  63.7723810  64.4408820  26.6100420  63.2773990  54.3451070
  26.3838000  62.5604430  54.9375710  26.2196620  63.0286430  53.5072820
  24.5382320  63.7920270  67.8247990  24.8738560  64.3786960  68.5025910
  23.6182660  63.6612980  68.0545780  12.3916450  67.3040850  55.1195530
  12.7514090  67.9030190  54.4652800  12.2508790  67.8500740  55.8930560
  12.0885720  51.5815450  68.6071400  11.3744240  51.7812370  69.2124010
  12.5080760  50.8055020  68.9786200  26.1916670  61.1945930  56.0065230
  25.9038370  61.6558620  56.7943110  26.9868840  60.7343700  56.2749450
  12.3758310  65.5695710  69.5937930  12.4849430  64.6290450  69.4533320
  11.7238870  65.8350460  68.9451660  20.3670900  63.8411600  70.9936050
  20.0467770  63.1220840  71.5381740  19.6929260  64.5166670  71.0672110
  18.4085070  64.6872050  55.9369200  18.3995170  65.4201740  55.3213710
  17.4883430  64.4403630  56.0296160  14.0091710  59.9086940  56.6815960
  13.4019660  60.6485840  56.6911260  14.4841060  59.9986300  55.8554160
  23.5824500  54.0737760  66.3572850  23.9505320  53.2532970  66.6852420
  22.7222700  54.1339650  66.7728500  26.9486530  53.0294700  57.1660410
  26.3199690  53.1340370  56.4518640  26.4538450  53.2491480  57.9554290
  21.3944670  64.7500290  54.5994390  21.4956650  64.5464280  53.6696370
  20.4946410  64.4958570  54.8042170  18.9170560  55.3080650  58.5818290
  18.2086710  55.7766990  59.0231900  19.2015040  54.6502660  59.2163480
  20.5426490  56.7277350  66.5810820  21.0411740  57.2023170  67.2462670
  20.6849440  55.8040870  66.7880850  22.9485990  52.0331310  60.0214080
  22.8253770  52.0517440  59.0723590  23.8970550  52.0810250  60.1412480
  20.0362780  67.2686610  59.2942060  20.2904280  67.2308000  58.3721430
  19.0875260  67.1419940  59.2870310  17.1205580  53.6165730  55.9569000
  17.9696110  54.0535880  55.8909190  16.7536850  53.9285990  56.7841060
  27.7493350  52.9445310  67.4239210  27.2466950  53.6850710  67.7633020
  28.5650010  53.3329310  67.1076000  26.0415360  58.1878490  60.8700570
  25.1005500  58.2028720  61.0448260  26.3559430  57.4014450  61.3160870
  16.0197000  59.8698090  54.4304530  16.7860270  59.7579450  54.9929960
  16.0971690  59.1736060  53.7781300  14.7143760  57.3023160  55.1137420
  14.7947350  56.3550670  55.2254820  15.6063510  57.6330040  55.2198080
  28.0440940  65.3587340  62.5454830  28.1688360  66.1818510  63.0178640
  28.9106500  65.1478070  62.1978980  15.5158470  67.4518550  62.2171960
  16.2520950  66.9034010  62.4880530  15.8999390  68.3174560  62.0777950
  12.4003950  63.5192120  58.0913470  11.4743730  63.7613260  58.0818880
  12.8660380  64.3466380  57.9698220  14.5216750  66.6364620  71.4057540
  15.3229480  66.9576670  71.8192940  14.0068570  66.2760200  72.1277450
  18.6260780  66.6248860  54.0397530  19.4189390  66.9137690  53.5879320
  18.1065130  66.1941030  53.3610010  23.3581380  62.7444490  71.3532950
  22.7519540  62.7676090  70.6128700  23.0535490  62.0127530  71.8900200
  24.7881750  66.4724780  69.9642360  25.7403500  66.3882800  69.9142600
  24.6409970  67.1366490  70.6376150  27.6790950  65.8518990  55.4634270
  27.3932460  65.4384130  54.6488450  27.4810500  66.7806700  55.3434790
  12.2414560  59.1238080  70.3493590  12.7453580  58.5445360  70.9209820
  11.5021980  59.4078310  70.8869960  19.1438180  61.8452270  53.9039880
  19.0388820  61.2304620  54.6301260  18.9762400  61.3218160  53.1202890
  19.2952500  60.5309070  69.8829110  18.5298170  61.0994070  69.7983780
  19.4768460  60.2385280  68.9897340  22.3840910  60.9072300  54.5081870
  21.8351010  61.3541600  55.1524610  23.0060170  60.4021550  55.0319540
  26.4375850  62.2614400  70.4404130  27.1785320  62.5990160  69.9371590
  25.6748530  62.4306460  69.8873900  14.2737640  57.2667670  71.2443660
  14.3142980  56.9681540  72.1528890  15.1283140  57.6675280  71.0851180
  18.0516030  59.8663220  56.4047170  18.4732450  59.7003090  57.2478560
  18.1766870  59.0563450  55.9102310  16.2143450  55.8459770  69.2118150
  15.6839910  55.3550720  68.5841490  16.8831520  56.2743970  68.6776080
  20.5643670  58.8900830  53.6524270  21.0849330  58.1749850  53.2865420
  21.2112070  59.5286700  53.9524780  25.1121510  60.3129230  68.9759340
  25.5262530  60.4674310  69.8249760  24.1772510  60.4384450  69.1385120
  25.5843680  57.6525390  70.9798490  26.1664450  56.8977710  70.8918970
  25.7605450  58.1832830  70.2029970  16.7015750  52.8122140  69.2915440
  16.6072620  52.1942890  68.5666310  16.1213140  53.5388430  69.0645350
  19.4677190  51.3695380  66.3242830  19.0194490  51.3919640  65.4788380
  18.8342390  50.9714400  66.9213130  19.8736740  60.2649710  66.9455270
  20.2924850  61.1082440  66.7731510  18.9545370  60.4021750  66.7162050
  22.2100640  57.9965890  68.3293110  22.3296850  57.4007030  69.0687950
  23.0694640  58.0335580  67.9094410  24.5488540  58.5503080  66.9055620
  24.0223760  59.0745700  66.3020760  24.8919880  59.1830470  67.5365350
  16.9474930  55.9396450  53.3505330  16.7463990  55.0763810  53.7118670
  16.7766980  55.8529810  52.4126930  17.7244160  66.5702720  68.0613000
  17.1865250  67.2948780  67.7421700  17.9778120  66.0933060  67.2710340
  18.9769410  54.5387240  69.5868930  19.5669100  54.2303090  70.2746750
  18.1589650  54.0666990  69.7428830  23.7962840  54.1553050  69.8201950
  23.1078360  53.4934590  69.7551940  24.5168860  53.7091320  70.2650410
  15.7457730  53.0397070  53.3383210  16.0483630  53.0464500  52.4302360
  16.4852320  52.6894930  53.8350870  20.5806370  67.8053930  68.3199650
  20.5065070  68.7089070  68.6272020  19.6785210  67.4865830  68.2921720
  18.9642660  51.9831690  54.3239410  18.6164660  51.3055680  53.7441860
  19.1655430  51.5221200  55.1382800  21.1291700  66.9712440  55.9426010
  22.0242490  67.3097410  55.9644770  21.1609330  66.2491850  55.3150290
  14.7687860  62.3439490  54.1713010  15.2062730  62.8869160  54.8270590
  15.2535590  61.5186440  54.1809350  11.9833660  65.1328520  61.6233270
  12.3136670  64.2649580  61.3911910  12.4124660  65.3387040  62.4538230
  16.5795580  63.4637530  59.2835240  16.2791120  63.3402500  60.1839150
  16.4733070  62.6046120  58.8750970  12.4723870  65.9999110  64.3614900
  12.0354860  66.1799910  65.1939050  13.0401550  66.7573730  64.2196620
  28.1086050  65.5016110  68.6492210  27.5088040  65.5608670  67.9056130
  28.2379950  64.5621090  68.7789060  29.3487500  63.2433930  53.9861920
  28.5180460  63.3110580  54.4569150  29.5259330  64.1338050  53.6828780
  28.8043960  59.9881410  56.4896120  29.5662870  60.5578060  56.5955810
  28.8198330  59.4208610  57.2604430  12.3048300  58.5119340  60.7203780
  11.6497140  58.2430980  60.0763480  13.1426250  58.4023820  60.2705760
  29.8103930  60.8431510  61.3338050  30.1812760  60.0598830  60.9274020
  30.4505860  61.5320610  61.1555350  26.7937690  62.2268090  66.7468370
  25.9797530  62.6565250  67.0094160  27.2011890  62.8386500  66.1337420
  28.8563130  60.2815780  53.6468640  29.1311970  61.1894660  53.5187860
  28.6673870  60.2178310  54.5830630  25.2538740  53.3060630  54.9422270
  25.6723620  53.1191610  54.1018930  24.9474800  52.4539680  55.2525200
  28.7528470  58.2184770  58.6398070  28.3772070  57.4512700  58.2079360
  28.0231590  58.6007470  59.1273000  13.3424230  58.8971910  65.2607120
  13.7097270  58.8099310  66.1403140  12.7735050  58.1338460  65.1613980
  28.1428090  57.3656290  68.2737590  27.9114180  57.1369040  67.3735540
  28.4032640  58.2855840  68.2282480  12.8940230  55.8081000  69.1665540
  11.9996280  55.7747760  69.5059250  13.4337780  56.0067790  69.9316790
  26.5816160  52.5912720  71.0517290  27.4586340  52.5996120  71.4351290
  26.5937000  51.8543560  70.4409640  11.5186380  55.7218270  56.6629110
  10.6150460  55.9848470  56.4880770  12.0027000  55.9929440  55.8829070
  28.0279430  56.4442260  61.9405310  28.5516910  55.9504910  61.3095480
  28.6138850  56.5792620  62.6852880  28.2069150  56.5282130  65.4624860
  27.2571860  56.4945670  65.5769850  28.3882160  57.4382240  65.2274630
  14.0613590  54.7783810  54.5723490  14.7705290  54.3567030  54.0870770
  13.3453530  54.8459040  53.9406840  13.7087750  50.8323140  53.6126140
  14.4315880  51.3732080  53.9307360  13.9812270  50.5586560  52.7367680
  27.5179400  55.7015610  57.8797720  28.0138520  55.4686480  58.6646600
  27.3195470  54.8627450  57.4635360  13.3979940  50.0829330  63.5148760
  14.0456130  49.5326710  63.0743920  13.8181780  50.3372480  64.3364570
  28.9466560  54.3376560  60.4135400  28.8365840  54.1832600  61.3517670
  29.7074150  53.8097500  60.1710810  27.2932280  50.2770690  66.8718400
  27.9304500  50.8904830  67.2377590  27.4407170  50.3131350  65.9267630
  29.8356830  52.1684480  53.6541540  30.7606140  52.0365660  53.4459830
  29.8132620  52.2477300  54.6077990  29.9095320  52.9395140  56.2798250
  29.1146820  52.8740260  56.8091160  30.1138600  53.8745780  56.2683600
  26.8513740  66.9786690  60.2736640  27.4472810  66.6571260  59.5971060
  27.1091890  66.5058510  61.0649910  13.1511940  50.2385000  66.2574080
  12.8026760  50.6948820  67.0232260  12.8199640  49.3442130  66.3396510
  14.7576310  63.4104600  70.4227270  14.7145940  63.0397510  71.3041730
  14.8887320  64.3482170  70.5629090  18.4582340  64.9664190  66.0236990
  18.2173700  65.2338750  65.1367510  19.3984980  65.1369920  66.0787850
  20.6636760  51.4296880  69.7793500  20.6025650  52.0218710  70.5288910
  21.6037140  51.3222840  69.6343760  23.3011320  51.0866940  69.4185790
  23.9151730  51.4046230  68.7566870  23.8460880  50.6015530  70.0381650
  29.7186500  66.9858570  66.8247630  29.2244780  67.3827440  66.1074760
  29.1099790  66.3607780  67.2184910  13.8232580  49.7661200  69.5324850
  14.3715570  49.5849250  68.7690960  13.8887890  48.9755310  70.0681160
  14.5964340  66.3566850  67.5425050  14.0024660  66.2251550  68.2815090
  14.5888180  65.5204990  67.0767150  24.0419360  49.6499080  65.7455080
  23.1679200  49.9834190  65.5428010  23.9330110  49.1772260  66.5706950
  24.9491340  51.8569950  67.1296800  24.6204700  51.0421710  66.7498530
  25.8973640  51.8139760  67.0062490  27.4025950  67.6281990  64.1034370
  26.9428920  68.3797800  63.7292390  26.7738410  66.9088460  64.0449170
  14.2276570  63.7225230  66.4933090  13.5010630  63.1030520  66.4259040
  14.2885720  64.1165840  65.6231170  17.8321670  65.9370230  63.2782500
  18.3486690  65.3257590  62.7530760  18.4819050  66.4399010  63.7693510
  20.5717170  66.8278720  64.1051480  20.8594980  66.5733020  63.2284490
  21.0840390  66.2756080  64.6957050  21.7894180  50.5668920  64.6847990
  21.0065970  51.0414420  64.9644750  21.4957110  49.6623750  64.5761170
  26.3415250  51.2692020  62.7297080  26.7823340  51.2137120  61.8818680
  26.0722840  52.1850030  62.8007260  28.2053820  50.9007260  60.7405900
  28.1442220  49.9568480  60.5936920  28.9845850  51.0087350  61.2859360
  12.5106570  67.0399620  59.7029850  12.3428610  66.4070300  60.4011740
  11.6441080  67.2459020  59.3524040  13.1334590  50.8716400  57.2061710
  13.8913950  50.9845280  56.6325740  12.6711760  51.7085600  57.1605140
  19.6748400  52.9855670  60.1964020  18.8622910  52.6112560  59.8559900
  20.1790040  52.2300750  60.4985210  24.1773380  49.6498120  61.4347090
  24.7802750  50.2218330  61.9095610  23.4366370  50.2137560  61.2120990
  27.3207980  50.0519680  56.7087370  27.5158610  50.9503130  56.9754800
  26.5337850  49.8206760  57.2020320  14.1169270  65.7332850  57.1479990
  13.5916890  66.1140880  56.4441950  14.0413850  66.3583620  57.8689700
  15.5059740  51.3980450  55.7463680  16.0352500  50.6110250  55.6171630
  16.1388060  52.0771640  55.9799210  17.6997580  51.1355590  58.8009070
  17.0700320  50.4342900  58.9679200  17.1602720  51.8959720  58.5842230
  20.6389530  67.7494820  71.4719680  21.5656840  67.5139090  71.5155640
  20.6239960  68.5766820  70.9905710  28.8734590  67.2920390  58.4693930
  29.0486780  66.6058130  57.8254850  28.1756160  67.8167440  58.0770600
  17.8253140  50.4139570  71.2361560  17.5437410  50.9173170  70.4722380
  18.2072840  49.6161320  70.8703690  16.7162240  67.6815230  56.0229240
  17.4481060  67.3974510  55.4753130  16.9755910  67.4428510  56.9128620
  15.8777030  63.7979960  56.0275570  15.2485910  64.2665060  56.5761400
  15.9924860  62.9529180  56.4621760  24.4268600  49.8293150  71.8142030
  24.3134050  50.1487760  72.7093550  25.2438340  50.2305660  71.5179310
  27.2067090  66.9764680  71.2960720  27.9992410  66.4813910  71.0886680
  27.5000240  67.6554820  71.9036330  23.3326750  57.8485620  42.1776770
  23.2520800  56.9340230  41.9068480  22.9191170  58.3452690  41.4716480
  21.4644790  59.6264640  44.0586040  20.6886890  59.1465080  44.3484610
  22.1157720  58.9470290  43.8842200  15.4810620  59.9384450  44.9361800
  14.6495500  59.6833160  45.3358310  16.0891600  60.0095220  45.6719720
  25.4852220  64.0324830  42.8385170  25.0233750  63.2612070  43.1672340
  26.2977770  64.0590900  43.3437620  15.4611880  63.9724540  45.1319820
  15.7639920  63.0822280  44.9530040  16.2055470  64.5294760  44.9042070
  13.8902570  54.8986340  38.7204190  13.0019270  55.2402310  38.6184070
  14.1743760  54.6986660  37.8285020  11.8535580  57.4991990  44.6043890
  12.4251690  56.7314190  44.6047530  11.8537120  57.7980750  43.6950500
  21.7115530  66.3182840  42.4589160  21.0926970  66.7740340  41.8883600
  22.5667310  66.4734300  42.0578860  20.9053780  62.3021830  44.0656200
  20.8362060  61.3611770  43.9045330  21.6673640  62.3923240  44.6378770
  13.0960450  52.9076350  46.3912820  12.9163290  52.0102100  46.6715580
  12.6940530  53.4548220  47.0659770  21.9358950  55.1092210  44.2925130
  22.3123770  54.2364090  44.1798800  21.8378460  55.4450910  43.4015570
  16.0663960  53.4817840  39.7542570  16.1730710  54.3821570  40.0611330
  15.1556320  53.4335810  39.4637220  25.7183070  52.6042650  41.2253470
  26.5392690  52.1139220  41.2678950  25.7517150  53.1940310  41.9785310
  13.7147120  55.4036850  44.9995160  14.3957230  55.6675220  45.6182560
  13.3995170  54.5637720  45.3333170  17.9071690  56.4504210  44.0867750
  18.4149910  56.9485180  44.7272770  18.4384930  55.6739410  43.9107110
  30.0082620  54.6209400  47.7897100  29.3034790  55.0091110  47.2712210
  30.2740540  55.3159690  48.3918030  16.1907790  51.0902770  48.3531170
  16.1926230  51.6075160  47.5477070  15.3612100  50.6132950  48.3301100
  22.5778880  61.2022080  39.8521070  21.9596150  61.6671530  39.2883790
  23.0902130  61.8949560  40.2690580  17.4410640  60.7297950  46.5304670
  17.1080020  61.3566870  47.1725740  17.6177320  61.2559830  45.7506340
  25.9544550  54.5443030  43.9981010  25.2500120  54.8327920  44.5784120
  26.3156710  55.3543140  43.6380570  15.8723120  52.8012730  46.3601620
  16.2139930  53.6454780  46.0655490  14.9338930  52.9496470  46.4766960
  16.6529740  62.6978750  48.3453850  17.2703740  63.3729830  48.0638300
  15.7922860  63.1066730  48.2541350  11.9462080  61.8878610  37.2260700
  11.5690060  62.3765710  36.4945600  12.2035150  62.5603890  37.8567230
  27.5707330  64.1618160  46.2608490  26.8870850  64.8317270  46.2525160
  28.1101620  64.3598810  45.4953350  29.0231470  53.9897820  44.3890220
  28.0756380  54.0236800  44.5205650  29.3481460  54.8036770  44.7739580
  19.5551010  50.2895000  42.6846210  19.8625990  49.7341890  41.9681710
  18.6251710  50.4239460  42.5019200  25.1066070  66.0062290  44.9753670
  25.1193230  65.6024580  44.1075930  24.5541290  66.7809580  44.8715100
  26.4011490  62.7278510  40.0643840  26.2907820  61.7852840  40.1893260
  26.3979740  63.0894150  40.9506600  24.5051510  60.9092130  46.3036280
  24.9220300  60.6952240  45.4689740  25.2291330  61.1664920  46.8744900
  21.9431770  58.3543830  39.4206330  21.0161050  58.2881210  39.6494800
  22.0956590  59.2923960  39.3061570  21.9300850  54.6260830  36.4173490
  20.9904520  54.7874790  36.5025950  22.2484110  55.3446510  35.8709480
  28.4513610  59.3079350  46.3952520  27.6232240  59.3772440  45.9202650
  29.0464090  59.8933660  45.9268350  25.9729060  59.9164130  39.9241580
  25.3541480  59.5783680  39.2767880  25.9553510  59.2723890  40.6320770
  25.4155620  56.0948670  47.3407390  25.0026800  56.9202380  47.5947380
  24.6831570  55.5093710  47.1483750  17.5488410  58.8808570  42.2026060
  17.1445410  58.1685820  41.7071960  17.6351530  58.5361810  43.0914100
  18.0170110  62.5676130  44.3665270  17.7198400  61.9621600  43.6873050
  18.9669930  62.6053440  44.2554630  16.2617030  55.6551780  45.9825100
  16.8131620  55.7647120  45.2078350  16.7760540  56.0289380  46.6980330
  26.1055720  66.1408000  48.0288370  25.6286280  66.9480190  47.8360980
  25.4217510  65.4886330  48.1814580  17.1088540  62.3057820  51.0173070
  16.2117070  62.5297790  51.2646470  17.1341410  62.4292760  50.0684470
  24.1493760  59.1550940  36.9314330  24.5887040  58.3173370  36.7852150
  24.8622180  59.7880340  37.0178470  15.9359760  59.1771140  49.5930440
  15.7967530  60.0493940  49.9617840  15.0541120  58.8343950  49.4478380
  22.2589140  64.0947010  40.8995570  22.6985050  64.8371340  40.4850960
  22.1976030  64.3373580  41.8234530  17.7340110  65.1192840  51.8015590
  17.7055540  65.5235790  50.9344020  17.5705080  64.1903200  51.6387190
  14.2493040  57.7753550  39.7032710  14.1290640  58.5015640  39.0913980
  13.9393930  57.0056460  39.2260620  29.6854930  65.9019940  53.0979760
  30.1614650  66.3802830  53.7768840  30.3062090  65.8337430  52.3725260
  11.8878410  60.9468690  45.5101350  11.9658830  61.0817460  44.5657070
  12.5020090  60.2384580  45.7029470  13.1326040  62.6468880  41.9207530
  12.7254120  62.7883470  41.0661130  14.0239050  62.3629040  41.7178740
  29.0888180  63.0932790  50.2579770  29.2151240  62.8544670  49.3396950
  29.1309560  62.2617330  50.7301850  22.9504920  66.7960790  48.8274580
  23.4649590  66.7068800  49.6297010  22.1074000  67.1420490  49.1202490
  24.9259320  67.0816130  38.2558580  24.7660460  66.7919070  39.1540410
  24.7606030  66.3056260  37.7203810  17.4047700  66.8614660  40.0330200
  17.2290180  65.9450200  39.8198000  16.5503440  67.2201950  40.2728000
  24.6285450  64.5903690  36.8156580  23.9350610  64.5880980  36.1558860
  25.3708310  64.1663010  36.3850750  24.1935380  66.2166400  40.8905070
  24.6492330  65.4355780  41.2043690  24.5327900  66.9273220  41.4346250
  28.9412190  55.1465250  51.2229510  28.3256460  55.6544920  50.6944970
  28.6208610  54.2463580  51.1655450  11.9437930  61.9882860  48.0495810
  12.1068970  61.5188220  47.2315180  12.4090380  61.4806420  48.7144650
  16.7156700  51.1188620  43.0856380  16.2724850  51.8998160  42.7540900
  17.2741690  51.4418510  43.7927320  21.0026510  53.9857140  48.6891700
  20.5405880  54.1940160  49.5011640  20.6004620  53.1716490  48.3862370
  26.0031020  55.2066090  49.8188360  25.1524610  54.9071840  50.1397430
  25.8432810  55.4508100  48.9072180  23.0980730  56.7067840  51.9187150
  23.4234140  55.8731590  51.5789380  23.8861060  57.2296360  52.0665480
  19.8315520  50.7399320  37.9662210  19.2069700  50.7359190  38.6915520
  19.7445640  49.8730280  37.5698180  18.7532600  51.6635950  44.9445980
  19.0504930  52.5698780  44.8638000  19.3018160  51.1754730  44.3305550
  16.5070920  56.2422190  40.8137630  16.2811840  56.0259360  41.7184250
  15.7263450  56.6750650  40.4683600  23.7368680  56.2485560  39.4128280
  23.1377570  56.9721360  39.2291900  24.2848290  56.1862340  38.6304730
  18.9470130  57.1407770  51.4797900  18.8513730  56.2002500  51.3298300
  19.7902110  57.3622840  51.0845970  22.3433550  54.8849100  41.4431560
  22.7363120  55.2021300  40.6300250  22.7050400  54.0060980  41.5576080
  14.0780670  53.5521440  49.6331680  13.6844060  54.3996650  49.8404460
  13.3899070  52.9147810  49.8240320  20.6525720  53.6356410  52.7028420
  19.9624040  53.4428610  53.3374510  21.3958020  53.9191050  53.2352720
  11.3797720  51.4749900  43.6661760  11.0910770  52.0452760  44.3786740
  12.1243480  50.9954350  44.0292990  11.5667950  55.4170020  34.8764480
  11.4842620  56.3600780  35.0179470  11.2151010  55.2744930  33.9976830
  22.9288690  57.4754850  45.5382340  22.1969810  57.9841660  45.8872440
  22.5313030  56.6584830  45.2371120  19.3666080  54.1509050  43.9434830
  19.3702140  53.7099000  43.0939370  20.2617200  54.4726380  44.0506650
  15.2168460  54.0335540  42.9029040  14.8768510  54.5110770  43.6596090
  14.4545780  53.5800660  42.5430140  19.4286230  55.1521130  36.9341590
  19.5499050  55.1107610  37.8827410  19.0434740  56.0145280  36.7788320
  23.3914600  52.9288530  44.9505280  23.4087340  53.3797180  45.7947130
  23.1430180  52.0294170  45.1638720  18.4407730  57.4622270  36.3324890
  17.8724630  57.0140520  35.7060800  19.1496730  57.8215050  35.7990040
  13.5176910  61.3634290  50.2091620  13.1331700  60.7227960  50.8074580
  13.8289100  62.0670410  50.7786350  19.6674050  58.2110830  45.6900240
  20.0344180  57.7369400  46.4361580  19.4779110  59.0852400  46.0308580
  12.5314540  52.9554520  41.8193710  12.2461460  52.5910190  42.6572330
  12.4693400  52.2234980  41.2056850  17.4573420  57.2519470  48.0084450
  17.1530490  58.1311450  48.2334810  18.4119880  57.3119260  48.0441890
  15.9855210  61.4580460  38.6051300  15.2117470  60.9178080  38.4450020
  16.7149840  60.9387070  38.2669060  26.7443190  60.4545820  44.3977690
  27.4642310  60.9501110  44.0073800  26.5425010  59.7763710  43.7531560
  22.2053130  51.8483780  38.5407080  21.3917740  51.3496950  38.4652390
  22.0115080  52.6882030  38.1243430  22.1261990  60.5254880  50.2846690
  22.0599300  59.6050550  50.0304280  21.4967130  60.6230320  50.9991330
  24.9201520  56.2203430  36.8369240  25.8081140  56.5320660  36.6620580
  24.8906610  55.3475680  36.4449820  16.0292610  61.1260840  42.2430110
  16.5471280  60.3229100  42.1887000  15.5776630  61.0639980  43.0846940
  20.9162110  62.3927120  37.5157410  21.2577810  63.1369350  37.0200730
  20.0874820  62.7058240  37.8782240  13.5137150  58.0922210  49.1555810
  13.1552090  58.7576060  49.7429150  13.2191710  57.2605760  49.5268430
  16.7150270  58.5506450  52.0395360  16.4150410  58.6963630  51.1423180
  17.4861510  57.9911740  51.9468750  22.0578720  63.3475450  50.0350490
  22.0723260  62.4156410  49.8169400  21.3503820  63.4335210  50.6740260
  27.1915790  57.5315270  36.3049100  27.1079510  57.9629490  35.4545540
  27.9109980  57.9913620  36.7375920  28.2689930  59.9882790  49.3819070
  27.5438120  60.5811570  49.1848460  28.7965390  59.9806330  48.5832440
  28.2203040  64.3857530  39.0331230  27.5779200  63.7313150  39.3074950
  27.8333700  64.7912620  38.2571900  23.7989520  61.7142960  42.8802920
  24.1513340  61.1171090  42.2204290  22.9151850  61.3887190  43.0511170
  19.8852800  62.4740650  40.2873330  20.5723930  63.0209860  40.6680920
  19.0985220  63.0181380  40.3222940  12.0245200  58.0913470  35.7790410
  12.8940050  58.3738270  36.0626330  11.5335520  58.9049340  35.6639220
  19.1880010  59.4786680  39.8998690  19.6442790  60.2891930  40.1258880
  18.8368220  59.1609820  40.7317180  21.4912620  64.9893020  47.1290990
  22.1354840  65.1952400  47.8064410  21.8542060  64.2281420  46.6761840
  15.0891790  49.8224330  40.3721210  14.9606420  49.8142230  41.3206130
  14.2653810  50.1607420  40.0212220  22.7644700  62.9925370  45.8468440
  23.4066930  62.2918530  45.9600610  23.2894050  63.7723810  45.6665330
  26.6100420  63.2773990  35.5707580  26.3838000  62.5604430  36.1632220
  26.2196620  63.0286430  34.7329330  24.5382320  63.7920270  49.0504500
  24.8738560  64.3786960  49.7282420  23.6182660  63.6612980  49.2802290
  12.3916450  67.3040850  36.3452040  12.7514090  67.9030190  35.6909310
  12.2508790  67.8500740  37.1187070  12.0885720  51.5815450  49.8327910
  11.3744240  51.7812370  50.4380520  12.5080760  50.8055020  50.2042710
  26.1916670  61.1945930  37.2321740  25.9038370  61.6558620  38.0199620
  26.9868840  60.7343700  37.5005960  12.3758310  65.5695710  50.8194440
  12.4849430  64.6290450  50.6789830  11.7238870  65.8350460  50.1708170
  20.3670900  63.8411600  52.2192560  20.0467770  63.1220840  52.7638250
  19.6929260  64.5166670  52.2928620  18.4085070  64.6872050  37.1625710
  18.3995170  65.4201740  36.5470220  17.4883430  64.4403630  37.2552670
  14.0091710  59.9086940  37.9072470  13.4019660  60.6485840  37.9167770
  14.4841060  59.9986300  37.0810670  23.5824500  54.0737760  47.5829360
  23.9505320  53.2532970  47.9108930  22.7222700  54.1339650  47.9985010
  26.9486530  53.0294700  38.3916920  26.3199690  53.1340370  37.6775150
  26.4538450  53.2491480  39.1810800  21.3944670  64.7500290  35.8250900
  21.4956650  64.5464280  34.8952880  20.4946410  64.4958570  36.0298680
  18.9170560  55.3080650  39.8074800  18.2086710  55.7766990  40.2488410
  19.2015040  54.6502660  40.4419990  20.5426490  56.7277350  47.8067330
  21.0411740  57.2023170  48.4719180  20.6849440  55.8040870  48.0137360
  22.9485990  52.0331310  41.2470590  22.8253770  52.0517440  40.2980100
  23.8970550  52.0810250  41.3668990  20.0362780  67.2686610  40.5198570
  20.2904280  67.2308000  39.5977940  19.0875260  67.1419940  40.5126820
  17.1205580  53.6165730  37.1825510  17.9696110  54.0535880  37.1165700
  16.7536850  53.9285990  38.0097570  27.7493350  52.9445310  48.6495720
  27.2466950  53.6850710  48.9889530  28.5650010  53.3329310  48.3332510
  26.0415360  58.1878490  42.0957080  25.1005500  58.2028720  42.2704770
  26.3559430  57.4014450  42.5417380  16.0197000  59.8698090  35.6561040
  16.7860270  59.7579450  36.2186470  16.0971690  59.1736060  35.0037810
  14.7143760  57.3023160  36.3393930  14.7947350  56.3550670  36.4511330
  15.6063510  57.6330040  36.4454590  28.0440940  65.3587340  43.7711340
  28.1688360  66.1818510  44.2435150  28.9106500  65.1478070  43.4235490
  15.5158470  67.4518550  43.4428470  16.2520950  66.9034010  43.7137040
  15.8999390  68.3174560  43.3034460  12.4003950  63.5192120  39.3169980
  11.4743730  63.7613260  39.3075390  12.8660380  64.3466380  39.1954730
  14.5216750  66.6364620  52.6314050  15.3229480  66.9576670  53.0449450
  14.0068570  66.2760200  53.3533960  18.6260780  66.6248860  35.2654040
  19.4189390  66.9137690  34.8135830  18.1065130  66.1941030  34.5866520
  23.3581380  62.7444490  52.5789460  22.7519540  62.7676090  51.8385210
  23.0535490  62.0127530  53.1156710  24.7881750  66.4724780  51.1898870
  25.7403500  66.3882800  51.1399110  24.6409970  67.1366490  51.8632660
  27.6790950  65.8518990  36.6890780  27.3932460  65.4384130  35.8744960
  27.4810500  66.7806700  36.5691300  12.2414560  59.1238080  51.5750100
  12.7453580  58.5445360  52.1466330  11.5021980  59.4078310  52.1126470
  19.1438180  61.8452270  35.1296390  19.0388820  61.2304620  35.8557770
  18.9762400  61.3218160  34.3459400  19.2952500  60.5309070  51.1085620
  18.5298170  61.0994070  51.0240290  19.4768460  60.2385280  50.2153850
  22.3840910  60.9072300  35.7338380  21.8351010  61.3541600  36.3781120
  23.0060170  60.4021550  36.2576050  26.4375850  62.2614400  51.6660640
  27.1785320  62.5990160  51.1628100  25.6748530  62.4306460  51.1130410
  14.2737640  57.2667670  52.4700170  14.3142980  56.9681540  53.3785400
  15.1283140  57.6675280  52.3107690  18.0516030  59.8663220  37.6303680
  18.4732450  59.7003090  38.4735070  18.1766870  59.0563450  37.1358820
  16.2143450  55.8459770  50.4374660  15.6839910  55.3550720  49.8098000
  16.8831520  56.2743970  49.9032590  20.5643670  58.8900830  34.8780780
  21.0849330  58.1749850  34.5121930  21.2112070  59.5286700  35.1781290
  25.1121510  60.3129230  50.2015850  25.5262530  60.4674310  51.0506270
  24.1772510  60.4384450  50.3641630  25.5843680  57.6525390  52.2055000
  26.1664450  56.8977710  52.1175480  25.7605450  58.1832830  51.4286480
  16.7015750  52.8122140  50.5171950  16.6072620  52.1942890  49.7922820
  16.1213140  53.5388430  50.2901860  19.4677190  51.3695380  47.5499340
  19.0194490  51.3919640  46.7044890  18.8342390  50.9714400  48.1469640
  19.8736740  60.2649710  48.1711780  20.2924850  61.1082440  47.9988020
  18.9545370  60.4021750  47.9418560  22.2100640  57.9965890  49.5549620
  22.3296850  57.4007030  50.2944460  23.0694640  58.0335580  49.1350920
  24.5488540  58.5503080  48.1312130  24.0223760  59.0745700  47.5277270
  24.8919880  59.1830470  48.7621860  16.9474930  55.9396450  34.5761840
  16.7463990  55.0763810  34.9375180  16.7766980  55.8529810  33.6383440
  17.7244160  66.5702720  49.2869510  17.1865250  67.2948780  48.9678210
  17.9778120  66.0933060  48.4966850  18.9769410  54.5387240  50.8125440
  19.5669100  54.2303090  51.5003260  18.1589650  54.0666990  50.9685340
  23.7962840  54.1553050  51.0458460  23.1078360  53.4934590  50.9808450
  24.5168860  53.7091320  51.4906920  24.4263240  50.7504680  37.1048720
  24.7065530  49.9072580  37.4608140  23.6528970  50.9827790  37.6187470
  15.7457730  53.0397070  34.5639720  16.0483630  53.0464500  33.6558870
  16.4852320  52.6894930  35.0607380  20.5806370  67.8053930  49.5456160
  20.5065070  68.7089070  49.8528530  19.6785210  67.4865830  49.5178230
  18.9642660  51.9831690  35.5495920  18.6164660  51.3055680  34.9698370
  19.1655430  51.5221200  36.3639310  21.1291700  66.9712440  37.1682520
  22.0242490  67.3097410  37.1901280  21.1609330  66.2491850  36.5406800
  14.7687860  62.3439490  35.3969520  15.2062730  62.8869160  36.0527100
  15.2535590  61.5186440  35.4065860  11.9833660  65.1328520  42.8489780
  12.3136670  64.2649580  42.6168420  12.4124660  65.3387040  43.6794740
  16.5795580  63.4637530  40.5091750  16.2791120  63.3402500  41.4095660
  16.4733070  62.6046120  40.1007480  12.4723870  65.9999110  45.5871410
  12.0354860  66.1799910  46.4195560  13.0401550  66.7573730  45.4453130
  28.1086050  65.5016110  49.8748720  27.5088040  65.5608670  49.1312640
  28.2379950  64.5621090  50.0045570  29.3487500  63.2433930  35.2118430
  28.5180460  63.3110580  35.6825660  29.5259330  64.1338050  34.9085290
  28.8043960  59.9881410  37.7152630  29.5662870  60.5578060  37.8212320
  28.8198330  59.4208610  38.4860940  12.3048300  58.5119340  41.9460290
  11.6497140  58.2430980  41.3019990  13.1426250  58.4023820  41.4962270
  29.8103930  60.8431510  42.5594560  30.1812760  60.0598830  42.1530530
  30.4505860  61.5320610  42.3811860  26.7937690  62.2268090  47.9724880
  25.9797530  62.6565250  48.2350670  27.2011890  62.8386500  47.3593930
  28.8563130  60.2815780  34.8725150  29.1311970  61.1894660  34.7444370
  28.6673870  60.2178310  35.8087140  25.2538740  53.3060630  36.1678780
  25.6723620  53.1191610  35.3275440  24.9474800  52.4539680  36.4781710
  28.7528470  58.2184770  39.8654580  28.3772070  57.4512700  39.4335870
  28.0231590  58.6007470  40.3529510  13.3424230  58.8971910  46.4863630
  13.7097270  58.8099310  47.3659650  12.7735050  58.1338460  46.3870490
  28.1428090  57.3656290  49.4994100  27.9114180  57.1369040  48.5992050
  28.4032640  58.2855840  49.4538990  12.8940230  55.8081000  50.3922050
  11.9996280  55.7747760  50.7315760  13.4337780  56.0067790  51.1573300
  11.5186380  55.7218270  37.8885620  10.6150460  55.9848470  37.7137280
  12.0027000  55.9929440  37.1085580  28.0279430  56.4442260  43.1661820
  28.5516910  55.9504910  42.5351990  28.6138850  56.5792620  43.9109390
  28.2069150  56.5282130  46.6881370  27.2571860  56.4945670  46.8026360
  28.3882160  57.4382240  46.4531140  14.0613590  54.7783810  35.7980000
  14.7705290  54.3567030  35.3127280  13.3453530  54.8459040  35.1663350
  13.7087750  50.8323140  34.8382650  14.4315880  51.3732080  35.1563870
  13.9812270  50.5586560  33.9624190  27.5179400  55.7015610  39.1054230
  28.0138520  55.4686480  39.8903110  27.3195470  54.8627450  38.6891870
  13.3979940  50.0829330  44.7405270  14.0456130  49.5326710  44.3000430
  13.8181780  50.3372480  45.5621080  28.9466560  54.3376560  41.6391910
  28.8365840  54.1832600  42.5774180  29.7074150  53.8097500  41.3967320
  26.8513740  66.9786690  41.4993150  27.4472810  66.6571260  40.8227570
  27.1091890  66.5058510  42.2906420  13.1511940  50.2385000  47.4830590
  12.8026760  50.6948820  48.2488770  12.8199640  49.3442130  47.5653020
  14.7576310  63.4104600  51.6483780  14.7145940  63.0397510  52.5298240
  14.8887320  64.3482170  51.7885600  18.4582340  64.9664190  47.2493500
  18.2173700  65.2338750  46.3624020  19.3984980  65.1369920  47.3044360
  20.6636760  51.4296880  51.0050010  20.6025650  52.0218710  51.7545420
  21.6037140  51.3222840  50.8600270  29.7186500  66.9858570  48.0504140
  29.2244780  67.3827440  47.3331270  29.1099790  66.3607780  48.4441420
  13.8232580  49.7661200  50.7581360  14.3715570  49.5849250  49.9947470
  13.8887890  48.9755310  51.2937670  14.5964340  66.3566850  48.7681560
  14.0024660  66.2251550  49.5071600  14.5888180  65.5204990  48.3023660
  24.0419360  49.6499080  46.9711590  23.1679200  49.9834190  46.7684520
  23.9330110  49.1772260  47.7963460  24.9491340  51.8569950  48.3553310
  24.6204700  51.0421710  47.9755040  25.8973640  51.8139760  48.2319000
  27.4025950  67.6281990  45.3290880  26.9428920  68.3797800  44.9548900
  26.7738410  66.9088460  45.2705680  14.2276570  63.7225230  47.7189600
  13.5010630  63.1030520  47.6515550  14.2885720  64.1165840  46.8487680
  17.8321670  65.9370230  44.5039010  18.3486690  65.3257590  43.9787270
  18.4819050  66.4399010  44.9950020  20.5717170  66.8278720  45.3307990
  20.8594980  66.5733020  44.4541000  21.0840390  66.2756080  45.9213560
  21.7894180  50.5668920  45.9104500  21.0065970  51.0414420  46.1901260
  21.4957110  49.6623750  45.8017680  26.3415250  51.2692020  43.9553590
  26.7823340  51.2137120  43.1075190  26.0722840  52.1850030  44.0263770
  12.5106570  67.0399620  40.9286360  12.3428610  66.4070300  41.6268250
  11.6441080  67.2459020  40.5780550  13.1334590  50.8716400  38.4318220
  13.8913950  50.9845280  37.8582250  12.6711760  51.7085600  38.3861650
  19.6748400  52.9855670  41.4220530  18.8622910  52.6112560  41.0816410
  20.1790040  52.2300750  41.7241720  24.1773380  49.6498120  42.6603600
  24.7802750  50.2218330  43.1352120  23.4366370  50.2137560  42.4377500
  14.1169270  65.7332850  38.3736500  13.5916890  66.1140880  37.6698460
  14.0413850  66.3583620  39.0946210  15.5059740  51.3980450  36.9720190
  16.0352500  50.6110250  36.8428140  16.1388060  52.0771640  37.2055720
  17.6997580  51.1355590  40.0265580  17.0700320  50.4342900  40.1935710
  17.1602720  51.8959720  39.8098740  20.6389530  67.7494820  52.6976190
  21.5656840  67.5139090  52.7412150  20.6239960  68.5766820  52.2162220
  28.8734590  67.2920390  39.6950440  29.0486780  66.6058130  39.0511360
  28.1756160  67.8167440  39.3027110  17.8253140  50.4139570  52.4618070
  17.5437410  50.9173170  51.6978890  18.2072840  49.6161320  52.0960200
  16.7162240  67.6815230  37.2485750  17.4481060  67.3974510  36.7009640
  16.9755910  67.4428510  38.1385130  15.8777030  63.7979960  37.2532080
  15.2485910  64.2665060  37.8017910  15.9924860  62.9529180  37.6878270
  27.2067090  66.9764680  52.5217230  27.9992410  66.4813910  52.3143190
  27.5000240  67.6554820  53.1292840  23.3326750  57.8485620  23.4033280
  23.2520800  56.9340230  23.1324990  22.9191170  58.3452690  22.6972990
  21.4644790  59.6264640  25.2842550  20.6886890  59.1465080  25.5741120
  22.1157720  58.9470290  25.1098710  15.4810620  59.9384450  26.1618310
  14.6495500  59.6833160  26.5614820  16.0891600  60.0095220  26.8976230
  25.4852220  64.0324830  24.0641680  25.0233750  63.2612070  24.3928850
  26.2977770  64.0590900  24.5694130  15.4611880  63.9724540  26.3576330
  15.7639920  63.0822280  26.1786550  16.2055470  64.5294760  26.1298580
  13.8902570  54.8986340  19.9460700  13.0019270  55.2402310  19.8440580
  14.1743760  54.6986660  19.0541530  11.8535580  57.4991990  25.8300400
  12.4251690  56.7314190  25.8304040  11.8537120  57.7980750  24.9207010
  21.7115530  66.3182840  23.6845670  21.0926970  66.7740340  23.1140110
  22.5667310  66.4734300  23.2835370  20.9053780  62.3021830  25.2912710
  20.8362060  61.3611770  25.1301840  21.6673640  62.3923240  25.8635280
  13.0960450  52.9076350  27.6169330  12.9163290  52.0102100  27.8972090
  12.6940530  53.4548220  28.2916280  21.9358950  55.1092210  25.5181640
  22.3123770  54.2364090  25.4055310  21.8378460  55.4450910  24.6272080
  16.0663960  53.4817840  20.9799080  16.1730710  54.3821570  21.2867840
  15.1556320  53.4335810  20.6893730  25.7183070  52.6042650  22.4509980
  26.5392690  52.1139220  22.4935460  25.7517150  53.1940310  23.2041820
  13.7147120  55.4036850  26.2251670  14.3957230  55.6675220  26.8439070
  13.3995170  54.5637720  26.5589680  17.9071690  56.4504210  25.3124260
  18.4149910  56.9485180  25.9529280  18.4384930  55.6739410  25.1363620
  30.0082620  54.6209400  29.0153610  29.3034790  55.0091110  28.4968720
  30.2740540  55.3159690  29.6174540  16.1907790  51.0902770  29.5787680
  16.1926230  51.6075160  28.7733580  15.3612100  50.6132950  29.5557610
  22.5778880  61.2022080  21.0777580  21.9596150  61.6671530  20.5140300
  23.0902130  61.8949560  21.4947090  17.4410640  60.7297950  27.7561180
  17.1080020  61.3566870  28.3982250  17.6177320  61.2559830  26.9762850
  25.9544550  54.5443030  25.2237520  25.2500120  54.8327920  25.8040630
  26.3156710  55.3543140  24.8637080  15.8723120  52.8012730  27.5858130
  16.2139930  53.6454780  27.2912000  14.9338930  52.9496470  27.7023470
  16.6529740  62.6978750  29.5710360  17.2703740  63.3729830  29.2894810
  15.7922860  63.1066730  29.4797860  11.9462080  61.8878610  18.4517210
  11.5690060  62.3765710  17.7202110  12.2035150  62.5603890  19.0823740
  27.5707330  64.1618160  27.4865000  26.8870850  64.8317270  27.4781670
  28.1101620  64.3598810  26.7209860  29.0231470  53.9897820  25.6146730
  28.0756380  54.0236800  25.7462160  29.3481460  54.8036770  25.9996090
  19.5551010  50.2895000  23.9102720  19.8625990  49.7341890  23.1938220
  18.6251710  50.4239460  23.7275710  25.1066070  66.0062290  26.2010180
  25.1193230  65.6024580  25.3332440  24.5541290  66.7809580  26.0971610
  26.4011490  62.7278510  21.2900350  26.2907820  61.7852840  21.4149770
  26.3979740  63.0894150  22.1763110  24.5051510  60.9092130  27.5292790
  24.9220300  60.6952240  26.6946250  25.2291330  61.1664920  28.1001410
  21.9431770  58.3543830  20.6462840  21.0161050  58.2881210  20.8751310
  22.0956590  59.2923960  20.5318080  21.9300850  54.6260830  17.6430000
  20.9904520  54.7874790  17.7282460  22.2484110  55.3446510  17.0965990
  28.4513610  59.3079350  27.6209030  27.6232240  59.3772440  27.1459160
  29.0464090  59.8933660  27.1524860  25.9729060  59.9164130  21.1498090
  25.3541480  59.5783680  20.5024390  25.9553510  59.2723890  21.8577280
  25.4155620  56.0948670  28.5663900  25.0026800  56.9202380  28.8203890
  24.6831570  55.5093710  28.3740260  17.5488410  58.8808570  23.4282570
  17.1445410  58.1685820  22.9328470  17.6351530  58.5361810  24.3170610
  18.0170110  62.5676130  25.5921780  17.7198400  61.9621600  24.9129560
  18.9669930  62.6053440  25.4811140  16.2617030  55.6551780  27.2081610
  16.8131620  55.7647120  26.4334860  16.7760540  56.0289380  27.9236840
  26.1055720  66.1408000  29.2544880  25.6286280  66.9480190  29.0617490
  25.4217510  65.4886330  29.4071090  17.1088540  62.3057820  32.2429580
  16.2117070  62.5297790  32.4902980  17.1341410  62.4292760  31.2940980
  24.1493760  59.1550940  18.1570840  24.5887040  58.3173370  18.0108660
  24.8622180  59.7880340  18.2434980  15.9359760  59.1771140  30.8186950
  15.7967530  60.0493940  31.1874350  15.0541120  58.8343950  30.6734890
  22.2589140  64.0947010  22.1252080  22.6985050  64.8371340  21.7107470
  22.1976030  64.3373580  23.0491040  17.7340110  65.1192840  33.0272100
  17.7055540  65.5235790  32.1600530  17.5705080  64.1903200  32.8643700
  27.7310900  50.4093750  16.4711880  27.4183560  50.5020580  17.3710950
  28.4923370  50.9874780  16.4209310  14.2493040  57.7753550  20.9289220
  14.1290640  58.5015640  20.3170490  13.9393930  57.0056460  20.4517130
  29.6854930  65.9019940  34.3236270  30.1614650  66.3802830  35.0025350
  30.3062090  65.8337430  33.5981770  11.8878410  60.9468690  26.7357860
  11.9658830  61.0817460  25.7913580  12.5020090  60.2384580  26.9285980
  13.1326040  62.6468880  23.1464040  12.7254120  62.7883470  22.2917640
  14.0239050  62.3629040  22.9435250  29.0888180  63.0932790  31.4836280
  29.2151240  62.8544670  30.5653460  29.1309560  62.2617330  31.9558360
  22.9504920  66.7960790  30.0531090  23.4649590  66.7068800  30.8553520
  22.1074000  67.1420490  30.3459000  24.9259320  67.0816130  19.4815090
  24.7660460  66.7919070  20.3796920  24.7606030  66.3056260  18.9460320
  17.4047700  66.8614660  21.2586710  17.2290180  65.9450200  21.0454510
  16.5503440  67.2201950  21.4984510  24.6285450  64.5903690  18.0413090
  23.9350610  64.5880980  17.3815370  25.3708310  64.1663010  17.6107260
  24.1935380  66.2166400  22.1161580  24.6492330  65.4355780  22.4300200
  24.5327900  66.9273220  22.6602760  28.9412190  55.1465250  32.4486020
  28.3256460  55.6544920  31.9201480  28.6208610  54.2463580  32.3911960
  11.9437930  61.9882860  29.2752320  12.1068970  61.5188220  28.4571690
  12.4090380  61.4806420  29.9401160  16.7156700  51.1188620  24.3112890
  16.2724850  51.8998160  23.9797410  17.2741690  51.4418510  25.0183830
  21.0026510  53.9857140  29.9148210  20.5405880  54.1940160  30.7268150
  20.6004620  53.1716490  29.6118880  26.0031020  55.2066090  31.0444870
  25.1524610  54.9071840  31.3653940  25.8432810  55.4508100  30.1328690
  23.0980730  56.7067840  33.1443660  23.4234140  55.8731590  32.8045890
  23.8861060  57.2296360  33.2921990  19.8315520  50.7399320  19.1918720
  19.2069700  50.7359190  19.9172030  19.7445640  49.8730280  18.7954690
  18.7532600  51.6635950  26.1702490  19.0504930  52.5698780  26.0894510
  19.3018160  51.1754730  25.5562060  16.5070920  56.2422190  22.0394140
  16.2811840  56.0259360  22.9440760  15.7263450  56.6750650  21.6940110
  23.7368680  56.2485560  20.6384790  23.1377570  56.9721360  20.4548410
  24.2848290  56.1862340  19.8561240  18.9470130  57.1407770  32.7054410
  18.8513730  56.2002500  32.5554810  19.7902110  57.3622840  32.3102480
  22.3433550  54.8849100  22.6688070  22.7363120  55.2021300  21.8556760
  22.7050400  54.0060980  22.7832590  14.0780670  53.5521440  30.8588190
  13.6844060  54.3996650  31.0660970  13.3899070  52.9147810  31.0496830
  20.6525720  53.6356410  33.9284930  19.9624040  53.4428610  34.5631020
  21.3958020  53.9191050  34.4609230  11.3797720  51.4749900  24.8918270
  11.0910770  52.0452760  25.6043250  12.1243480  50.9954350  25.2549500
  11.5667950  55.4170020  16.1020990  11.4842620  56.3600780  16.2435980
  11.2151010  55.2744930  15.2233340  22.9288690  57.4754850  26.7638850
  22.1969810  57.9841660  27.1128950  22.5313030  56.6584830  26.4627630
  19.3666080  54.1509050  25.1691340  19.3702140  53.7099000  24.3195880
  20.2617200  54.4726380  25.2763160  15.2168460  54.0335540  24.1285550
  14.8768510  54.5110770  24.8852600  14.4545780  53.5800660  23.7686650
  19.4286230  55.1521130  18.1598100  19.5499050  55.1107610  19.1083920
  19.0434740  56.0145280  18.0044830  23.3914600  52.9288530  26.1761790
  23.4087340  53.3797180  27.0203640  23.1430180  52.0294170  26.3895230
  18.4407730  57.4622270  17.5581400  17.8724630  57.0140520  16.9317310
  19.1496730  57.8215050  17.0246550  13.5176910  61.3634290  31.4348130
  13.1331700  60.7227960  32.0331090  13.8289100  62.0670410  32.0042860
  19.6674050  58.2110830  26.9156750  20.0344180  57.7369400  27.6618090
  19.4779110  59.0852400  27.2565090  12.5314540  52.9554520  23.0450220
  12.2461460  52.5910190  23.8828840  12.4693400  52.2234980  22.4313360
  17.4573420  57.2519470  29.2340960  17.1530490  58.1311450  29.4591320
  18.4119880  57.3119260  29.2698400  15.9855210  61.4580460  19.8307810
  15.2117470  60.9178080  19.6706530  16.7149840  60.9387070  19.4925570
  26.7443190  60.4545820  25.6234200  27.4642310  60.9501110  25.2330310
  26.5425010  59.7763710  24.9788070  22.2053130  51.8483780  19.7663590
  21.3917740  51.3496950  19.6908900  22.0115080  52.6882030  19.3499940
  22.1261990  60.5254880  31.5103200  22.0599300  59.6050550  31.2560790
  21.4967130  60.6230320  32.2247840  24.9201520  56.2203430  18.0625750
  25.8081140  56.5320660  17.8877090  24.8906610  55.3475680  17.6706330
  16.0292610  61.1260840  23.4686620  16.5471280  60.3229100  23.4143510
  15.5776630  61.0639980  24.3103450  20.9162110  62.3927120  18.7413920
  21.2577810  63.1369350  18.2457240  20.0874820  62.7058240  19.1038750
  13.5137150  58.0922210  30.3812320  13.1552090  58.7576060  30.9685660
  13.2191710  57.2605760  30.7524940  16.7150270  58.5506450  33.2651870
  16.4150410  58.6963630  32.3679690  17.4861510  57.9911740  33.1725260
  22.0578720  63.3475450  31.2607000  22.0723260  62.4156410  31.0425910
  21.3503820  63.4335210  31.8996770  27.1915790  57.5315270  17.5305610
  27.1079510  57.9629490  16.6802050  27.9109980  57.9913620  17.9632430
  28.2689930  59.9882790  30.6075580  27.5438120  60.5811570  30.4104970
  28.7965390  59.9806330  29.8088950  28.2203040  64.3857530  20.2587740
  27.5779200  63.7313150  20.5331460  27.8333700  64.7912620  19.4828410
  23.7989520  61.7142960  24.1059430  24.1513340  61.1171090  23.4460800
  22.9151850  61.3887190  24.2767680  19.8852800  62.4740650  21.5129840
  20.5723930  63.0209860  21.8937430  19.0985220  63.0181380  21.5479450
  12.0245200  58.0913470  17.0046920  12.8940050  58.3738270  17.2882840
  11.5335520  58.9049340  16.8895730  19.1880010  59.4786680  21.1255200
  19.6442790  60.2891930  21.3515390  18.8368220  59.1609820  21.9573690
  21.4912620  64.9893020  28.3547500  22.1354840  65.1952400  29.0320920
  21.8542060  64.2281420  27.9018350  15.0891790  49.8224330  21.5977720
  14.9606420  49.8142230  22.5462640  14.2653810  50.1607420  21.2468730
  22.7644700  62.9925370  27.0724950  23.4066930  62.2918530  27.1857120
  23.2894050  63.7723810  26.8921840  26.6100420  63.2773990  16.7964090
  26.3838000  62.5604430  17.3888730  26.2196620  63.0286430  15.9585840
  24.5382320  63.7920270  30.2761010  24.8738560  64.3786960  30.9538930
  23.6182660  63.6612980  30.5058800  12.3916450  67.3040850  17.5708550
  12.7514090  67.9030190  16.9165820  12.2508790  67.8500740  18.3443580
  12.0885720  51.5815450  31.0584420  11.3744240  51.7812370  31.6637030
  12.5080760  50.8055020  31.4299220  26.1916670  61.1945930  18.4578250
  25.9038370  61.6558620  19.2456130  26.9868840  60.7343700  18.7262470
  12.3758310  65.5695710  32.0450950  12.4849430  64.6290450  31.9046340
  11.7238870  65.8350460  31.3964680  20.3670900  63.8411600  33.4449070
  20.0467770  63.1220840  33.9894760  19.6929260  64.5166670  33.5185130
  18.4085070  64.6872050  18.3882220  18.3995170  65.4201740  17.7726730
  17.4883430  64.4403630  18.4809180  14.0091710  59.9086940  19.1328980
  13.4019660  60.6485840  19.1424280  14.4841060  59.9986300  18.3067180
  23.5824500  54.0737760  28.8085870  23.9505320  53.2532970  29.1365440
  22.7222700  54.1339650  29.2241520  26.9486530  53.0294700  19.6173430
  26.3199690  53.1340370  18.9031660  26.4538450  53.2491480  20.4067310
  21.3944670  64.7500290  17.0507410  21.4956650  64.5464280  16.1209390
  20.4946410  64.4958570  17.2555190  18.9170560  55.3080650  21.0331310
  18.2086710  55.7766990  21.4744920  19.2015040  54.6502660  21.6676500
  20.5426490  56.7277350  29.0323840  21.0411740  57.2023170  29.6975690
  20.6849440  55.8040870  29.2393870  22.9485990  52.0331310  22.4727100
  22.8253770  52.0517440  21.5236610  23.8970550  52.0810250  22.5925500
  20.0362780  67.2686610  21.7455080  20.2904280  67.2308000  20.8234450
  19.0875260  67.1419940  21.7383330  17.1205580  53.6165730  18.4082020
  17.9696110  54.0535880  18.3422210  16.7536850  53.9285990  19.2354080
  27.7493350  52.9445310  29.8752230  27.2466950  53.6850710  30.2146040
  28.5650010  53.3329310  29.5589020  26.0415360  58.1878490  23.3213590
  25.1005500  58.2028720  23.4961280  26.3559430  57.4014450  23.7673890
  16.0197000  59.8698090  16.8817550  16.7860270  59.7579450  17.4442980
  16.0971690  59.1736060  16.2294320  14.7143760  57.3023160  17.5650440
  14.7947350  56.3550670  17.6767840  15.6063510  57.6330040  17.6711100
  28.0440940  65.3587340  24.9967850  28.1688360  66.1818510  25.4691660
  28.9106500  65.1478070  24.6492000  15.5158470  67.4518550  24.6684980
  16.2520950  66.9034010  24.9393550  15.8999390  68.3174560  24.5290970
  12.4003950  63.5192120  20.5426490  11.4743730  63.7613260  20.5331900
  12.8660380  64.3466380  20.4211240  14.5216750  66.6364620  33.8570560
  15.3229480  66.9576670  34.2705960  14.0068570  66.2760200  34.5790470
  18.6260780  66.6248860  16.4910550  19.4189390  66.9137690  16.0392340
  18.1065130  66.1941030  15.8123030  23.3581380  62.7444490  33.8045970
  22.7519540  62.7676090  33.0641720  23.0535490  62.0127530  34.3413220
  24.7881750  66.4724780  32.4155380  25.7403500  66.3882800  32.3655620
  24.6409970  67.1366490  33.0889170  27.6790950  65.8518990  17.9147290
  27.3932460  65.4384130  17.1001470  27.4810500  66.7806700  17.7947810
  12.2414560  59.1238080  32.8006610  12.7453580  58.5445360  33.3722840
  11.5021980  59.4078310  33.3382980  19.1438180  61.8452270  16.3552900
  19.0388820  61.2304620  17.0814280  18.9762400  61.3218160  15.5715910
  19.2952500  60.5309070  32.3342130  18.5298170  61.0994070  32.2496800
  19.4768460  60.2385280  31.4410360  22.3840910  60.9072300  16.9594890
  21.8351010  61.3541600  17.6037630  23.0060170  60.4021550  17.4832560
  26.4375850  62.2614400  32.8917150  27.1785320  62.5990160  32.3884610
  25.6748530  62.4306460  32.3386920  14.2737640  57.2667670  33.6956680
  14.3142980  56.9681540  34.6041910  15.1283140  57.6675280  33.5364200
  18.0516030  59.8663220  18.8560190  18.4732450  59.7003090  19.6991580
  18.1766870  59.0563450  18.3615330  16.2143450  55.8459770  31.6631170
  15.6839910  55.3550720  31.0354510  16.8831520  56.2743970  31.1289100
  20.5643670  58.8900830  16.1037290  21.0849330  58.1749850  15.7378440
  21.2112070  59.5286700  16.4037800  25.1121510  60.3129230  31.4272360
  25.5262530  60.4674310  32.2762780  24.1772510  60.4384450  31.5898140
  25.5843680  57.6525390  33.4311510  26.1664450  56.8977710  33.3431990
  25.7605450  58.1832830  32.6542990  16.7015750  52.8122140  31.7428460
  16.6072620  52.1942890  31.0179330  16.1213140  53.5388430  31.5158370
  19.4677190  51.3695380  28.7755850  19.0194490  51.3919640  27.9301400
  18.8342390  50.9714400  29.3726150  19.8736740  60.2649710  29.3968290
  20.2924850  61.1082440  29.2244530  18.9545370  60.4021750  29.1675070
  22.2100640  57.9965890  30.7806130  22.3296850  57.4007030  31.5200970
  23.0694640  58.0335580  30.3607430  24.5488540  58.5503080  29.3568640
  24.0223760  59.0745700  28.7533780  24.8919880  59.1830470  29.9878370
  16.9474930  55.9396450  15.8018350  16.7463990  55.0763810  16.1631690
  16.7766980  55.8529810  14.8639950  17.7244160  66.5702720  30.5126020
  17.1865250  67.2948780  30.1934720  17.9778120  66.0933060  29.7223360
  18.9769410  54.5387240  32.0381950  19.5669100  54.2303090  32.7259770
  18.1589650  54.0666990  32.1941850  23.7962840  54.1553050  32.2714970
  23.1078360  53.4934590  32.2064960  24.5168860  53.7091320  32.7163430
  24.4263240  50.7504680  18.3305230  24.7065530  49.9072580  18.6864650
  23.6528970  50.9827790  18.8443980  15.7457730  53.0397070  15.7896230
  16.0483630  53.0464500  14.8815380  16.4852320  52.6894930  16.2863890
  20.5806370  67.8053930  30.7712670  20.5065070  68.7089070  31.0785040
  19.6785210  67.4865830  30.7434740  18.9642660  51.9831690  16.7752430
  18.6164660  51.3055680  16.1954880  19.1655430  51.5221200  17.5895820
  21.1291700  66.9712440  18.3939030  22.0242490  67.3097410  18.4157790
  21.1609330  66.2491850  17.7663310  14.7687860  62.3439490  16.6226030
  15.2062730  62.8869160  17.2783610  15.2535590  61.5186440  16.6322370
  11.9833660  65.1328520  24.0746290  12.3136670  64.2649580  23.8424930
  12.4124660  65.3387040  24.9051250  16.5795580  63.4637530  21.7348260
  16.2791120  63.3402500  22.6352170  16.4733070  62.6046120  21.3263990
  12.4723870  65.9999110  26.8127920  12.0354860  66.1799910  27.6452070
  13.0401550  66.7573730  26.6709640  28.1086050  65.5016110  31.1005230
  27.5088040  65.5608670  30.3569150  28.2379950  64.5621090  31.2302080
  29.3487500  63.2433930  16.4374940  28.5180460  63.3110580  16.9082170
  29.5259330  64.1338050  16.1341800  28.8043960  59.9881410  18.9409140
  29.5662870  60.5578060  19.0468830  28.8198330  59.4208610  19.7117450
  12.3048300  58.5119340  23.1716800  11.6497140  58.2430980  22.5276500
  13.1426250  58.4023820  22.7218780  29.8103930  60.8431510  23.7851070
  30.1812760  60.0598830  23.3787040  30.4505860  61.5320610  23.6068370
  26.7937690  62.2268090  29.1981390  25.9797530  62.6565250  29.4607180
  27.2011890  62.8386500  28.5850440  28.8563130  60.2815780  16.0981660
  29.1311970  61.1894660  15.9700880  28.6673870  60.2178310  17.0343650
  25.2538740  53.3060630  17.3935290  25.6723620  53.1191610  16.5531950
  24.9474800  52.4539680  17.7038220  28.7528470  58.2184770  21.0911090
  28.3772070  57.4512700  20.6592380  28.0231590  58.6007470  21.5786020
  13.3424230  58.8971910  27.7120140  13.7097270  58.8099310  28.5916160
  12.7735050  58.1338460  27.6127000  28.1428090  57.3656290  30.7250610
  27.9114180  57.1369040  29.8248560  28.4032640  58.2855840  30.6795500
  12.8940230  55.8081000  31.6178560  11.9996280  55.7747760  31.9572270
  13.4337780  56.0067790  32.3829810  11.5186380  55.7218270  19.1142130
  10.6150460  55.9848470  18.9393790  12.0027000  55.9929440  18.3342090
  28.0279430  56.4442260  24.3918330  28.5516910  55.9504910  23.7608500
  28.6138850  56.5792620  25.1365900  28.2069150  56.5282130  27.9137880
  27.2571860  56.4945670  28.0282870  28.3882160  57.4382240  27.6787650
  14.0613590  54.7783810  17.0236510  14.7705290  54.3567030  16.5383790
  13.3453530  54.8459040  16.3919860  13.7087750  50.8323140  16.0639160
  14.4315880  51.3732080  16.3820380  13.9812270  50.5586560  15.1880700
  27.5179400  55.7015610  20.3310740  28.0138520  55.4686480  21.1159620
  27.3195470  54.8627450  19.9148380  13.3979940  50.0829330  25.9661780
  14.0456130  49.5326710  25.5256940  13.8181780  50.3372480  26.7877590
  28.9466560  54.3376560  22.8648420  28.8365840  54.1832600  23.8030690
  29.7074150  53.8097500  22.6223830  27.2932280  50.2770690  29.3231420
  27.9304500  50.8904830  29.6890610  27.4407170  50.3131350  28.3780650
  29.8356830  52.1684480  16.1054560  30.7606140  52.0365660  15.8972850
  29.8132620  52.2477300  17.0591010  29.9095320  52.9395140  18.7311270
  29.1146820  52.8740260  19.2604180  30.1138600  53.8745780  18.7196620
  26.8513740  66.9786690  22.7249660  27.4472810  66.6571260  22.0484080
  27.1091890  66.5058510  23.5162930  13.1511940  50.2385000  28.7087100
  12.8026760  50.6948820  29.4745280  12.8199640  49.3442130  28.7909530
  14.7576310  63.4104600  32.8740290  14.7145940  63.0397510  33.7554750
  14.8887320  64.3482170  33.0142110  18.4582340  64.9664190  28.4750010
  18.2173700  65.2338750  27.5880530  19.3984980  65.1369920  28.5300870
  20.6636760  51.4296880  32.2306520  20.6025650  52.0218710  32.9801930
  21.6037140  51.3222840  32.0856780  23.3011320  51.0866940  31.8698810
  23.9151730  51.4046230  31.2079890  23.8460880  50.6015530  32.4894670
  29.7186500  66.9858570  29.2760650  29.2244780  67.3827440  28.5587780
  29.1099790  66.3607780  29.6697930  13.8232580  49.7661200  31.9837870
  14.3715570  49.5849250  31.2203980  13.8887890  48.9755310  32.5194180
  14.5964340  66.3566850  29.9938070  14.0024660  66.2251550  30.7328110
  14.5888180  65.5204990  29.5280170  24.0419360  49.6499080  28.1968100
  23.1679200  49.9834190  27.9941030  23.9330110  49.1772260  29.0219970
  24.9491340  51.8569950  29.5809820  24.6204700  51.0421710  29.2011550
  25.8973640  51.8139760  29.4575510  27.4025950  67.6281990  26.5547390
  26.9428920  68.3797800  26.1805410  26.7738410  66.9088460  26.4962190
  14.2276570  63.7225230  28.9446110  13.5010630  63.1030520  28.8772060
  14.2885720  64.1165840  28.0744190  17.8321670  65.9370230  25.7295520
  18.3486690  65.3257590  25.2043780  18.4819050  66.4399010  26.2206530
  20.5717170  66.8278720  26.5564500  20.8594980  66.5733020  25.6797510
  21.0840390  66.2756080  27.1470070  21.7894180  50.5668920  27.1361010
  21.0065970  51.0414420  27.4157770  21.4957110  49.6623750  27.0274190
  26.3415250  51.2692020  25.1810100  26.7823340  51.2137120  24.3331700
  26.0722840  52.1850030  25.2520280  28.2053820  50.9007260  23.1918920
  28.1442220  49.9568480  23.0449940  28.9845850  51.0087350  23.7372380
  12.5106570  67.0399620  22.1542870  12.3428610  66.4070300  22.8524760
  11.6441080  67.2459020  21.8037060  13.1334590  50.8716400  19.6574730
  13.8913950  50.9845280  19.0838760  12.6711760  51.7085600  19.6118160
  19.6748400  52.9855670  22.6477040  18.8622910  52.6112560  22.3072920
  20.1790040  52.2300750  22.9498230  24.1773380  49.6498120  23.8860110
  24.7802750  50.2218330  24.3608630  23.4366370  50.2137560  23.6634010
  27.3207980  50.0519680  19.1600390  27.5158610  50.9503130  19.4267820
  26.5337850  49.8206760  19.6533340  14.1169270  65.7332850  19.5993010
  13.5916890  66.1140880  18.8954970  14.0413850  66.3583620  20.3202720
  15.5059740  51.3980450  18.1976700  16.0352500  50.6110250  18.0684650
  16.1388060  52.0771640  18.4312230  17.6997580  51.1355590  21.2522090
  17.0700320  50.4342900  21.4192220  17.1602720  51.8959720  21.0355250
  20.6389530  67.7494820  33.9232700  21.5656840  67.5139090  33.9668660
  20.6239960  68.5766820  33.4418730  28.8734590  67.2920390  20.9206950
  29.0486780  66.6058130  20.2767870  28.1756160  67.8167440  20.5283620
  17.8253140  50.4139570  33.6874580  17.5437410  50.9173170  32.9235400
  18.2072840  49.6161320  33.3216710  16.7162240  67.6815230  18.4742260
  17.4481060  67.3974510  17.9266150  16.9755910  67.4428510  19.3641640
  15.8777030  63.7979960  18.4788590  15.2485910  64.2665060  19.0274420
  15.9924860  62.9529180  18.9134780  27.2067090  66.9764680  33.7473740
  27.9992410  66.4813910  33.5399700  27.5000240  67.6554820  34.3549350
  23.3326750  57.8485620   4.6289790  23.2520800  56.9340230   4.3581500
  22.9191170  58.3452690   3.9229500  21.4644790  59.6264640   6.5099060
  20.6886890  59.1465080   6.7997630  22.1157720  58.9470290   6.3355220
  15.4810620  59.9384450   7.3874820  14.6495500  59.6833160   7.7871330
  16.0891600  60.0095220   8.1232740  25.4852220  64.0324830   5.2898190
  25.0233750  63.2612070   5.6185360  26.2977770  64.0590900   5.7950640
  15.4611880  63.9724540   7.5832840  15.7639920  63.0822280   7.4043060
  16.2055470  64.5294760   7.3555090  11.8535580  57.4991990   7.0556910
  12.4251690  56.7314190   7.0560550  11.8537120  57.7980750   6.1463520
  21.7115530  66.3182840   4.9102180  21.0926970  66.7740340   4.3396620
  22.5667310  66.4734300   4.5091880  20.9053780  62.3021830   6.5169220
  20.8362060  61.3611770   6.3558350  21.6673640  62.3923240   7.0891790
  13.0960450  52.9076350   8.8425840  12.9163290  52.0102100   9.1228600
  12.6940530  53.4548220   9.5172790  21.9358950  55.1092210   6.7438150
  22.3123770  54.2364090   6.6311820  21.8378460  55.4450910   5.8528590
  16.0663960  53.4817840   2.2055590  16.1730710  54.3821570   2.5124350
  15.1556320  53.4335810   1.9150240  25.7183070  52.6042650   3.6766490
  26.5392690  52.1139220   3.7191970  25.7517150  53.1940310   4.4298330
  13.7147120  55.4036850   7.4508180  14.3957230  55.6675220   8.0695580
  13.3995170  54.5637720   7.7846190  17.9071690  56.4504210   6.5380770
  18.4149910  56.9485180   7.1785790  18.4384930  55.6739410   6.3620130
  30.0082620  54.6209400  10.2410120  29.3034790  55.0091110   9.7225230
  30.2740540  55.3159690  10.8431050  16.1907790  51.0902770  10.8044190
  16.1926230  51.6075160   9.9990090  15.3612100  50.6132950  10.7814120
  22.5778880  61.2022080   2.3034090  21.9596150  61.6671530   1.7396810
  23.0902130  61.8949560   2.7203600  17.4410640  60.7297950   8.9817690
  17.1080020  61.3566870   9.6238760  17.6177320  61.2559830   8.2019360
  25.9544550  54.5443030   6.4494030  25.2500120  54.8327920   7.0297140
  26.3156710  55.3543140   6.0893590  15.8723120  52.8012730   8.8114640
  16.2139930  53.6454780   8.5168510  14.9338930  52.9496470   8.9279980
  16.6529740  62.6978750  10.7966870  17.2703740  63.3729830  10.5151320
  15.7922860  63.1066730  10.7054370  27.5707330  64.1618160   8.7121510
  26.8870850  64.8317270   8.7038180  28.1101620  64.3598810   7.9466370
  29.0231470  53.9897820   6.8403240  28.0756380  54.0236800   6.9718670
  29.3481460  54.8036770   7.2252600  19.5551010  50.2895000   5.1359230
  19.8625990  49.7341890   4.4194730  18.6251710  50.4239460   4.9532220
  25.1066070  66.0062290   7.4266690  25.1193230  65.6024580   6.5588950
  24.5541290  66.7809580   7.3228120  26.4011490  62.7278510   2.5156860
  26.2907820  61.7852840   2.6406280  26.3979740  63.0894150   3.4019620
  24.5051510  60.9092130   8.7549300  24.9220300  60.6952240   7.9202760
  25.2291330  61.1664920   9.3257920  21.9431770  58.3543830   1.8719350
  21.0161050  58.2881210   2.1007820  22.0956590  59.2923960   1.7574590
  28.4513610  59.3079350   8.8465540  27.6232240  59.3772440   8.3715670
  29.0464090  59.8933660   8.3781370  25.9729060  59.9164130   2.3754600
  25.3541480  59.5783680   1.7280900  25.9553510  59.2723890   3.0833790
  25.4155620  56.0948670   9.7920410  25.0026800  56.9202380  10.0460400
  24.6831570  55.5093710   9.5996770  17.5488410  58.8808570   4.6539080
  17.1445410  58.1685820   4.1584980  17.6351530  58.5361810   5.5427120
  18.0170110  62.5676130   6.8178290  17.7198400  61.9621600   6.1386070
  18.9669930  62.6053440   6.7067650  16.2617030  55.6551780   8.4338120
  16.8131620  55.7647120   7.6591370  16.7760540  56.0289380   9.1493350
  26.1055720  66.1408000  10.4801390  25.6286280  66.9480190  10.2874000
  25.4217510  65.4886330  10.6327600  17.1088540  62.3057820  13.4686090
  16.2117070  62.5297790  13.7159490  17.1341410  62.4292760  12.5197490
  15.9359760  59.1771140  12.0443460  15.7967530  60.0493940  12.4130860
  15.0541120  58.8343950  11.8991400  22.2589140  64.0947010   3.3508590
  22.6985050  64.8371340   2.9363980  22.1976030  64.3373580   4.2747550
  17.7340110  65.1192840  14.2528610  17.7055540  65.5235790  13.3857040
  17.5705080  64.1903200  14.0900210  14.2493040  57.7753550   2.1545730
  14.1290640  58.5015640   1.5427000  13.9393930  57.0056460   1.6773640
  29.6854930  65.9019940  15.5492780  30.1614650  66.3802830  16.2281860
  30.3062090  65.8337430  14.8238280  11.8878410  60.9468690   7.9614370
  11.9658830  61.0817460   7.0170090  12.5020090  60.2384580   8.1542490
  13.1326040  62.6468880   4.3720550  12.7254120  62.7883470   3.5174150
  14.0239050  62.3629040   4.1691760  29.0888180  63.0932790  12.7092790
  29.2151240  62.8544670  11.7909970  29.1309560  62.2617330  13.1814870
  22.9504920  66.7960790  11.2787600  23.4649590  66.7068800  12.0810030
  22.1074000  67.1420490  11.5715510  17.4047700  66.8614660   2.4843220
  17.2290180  65.9450200   2.2711020  16.5503440  67.2201950   2.7241020
  24.1935380  66.2166400   3.3418090  24.6492330  65.4355780   3.6556710
  24.5327900  66.9273220   3.8859270  28.9412190  55.1465250  13.6742530
  28.3256460  55.6544920  13.1457990  28.6208610  54.2463580  13.6168470
  11.9437930  61.9882860  10.5008830  12.1068970  61.5188220   9.6828200
  12.4090380  61.4806420  11.1657670  16.7156700  51.1188620   5.5369400
  16.2724850  51.8998160   5.2053920  17.2741690  51.4418510   6.2440340
  21.0026510  53.9857140  11.1404720  20.5405880  54.1940160  11.9524660
  20.6004620  53.1716490  10.8375390  26.0031020  55.2066090  12.2701380
  25.1524610  54.9071840  12.5910450  25.8432810  55.4508100  11.3585200
  23.0980730  56.7067840  14.3700170  23.4234140  55.8731590  14.0302400
  23.8861060  57.2296360  14.5178500  18.7532600  51.6635950   7.3959000
  19.0504930  52.5698780   7.3151020  19.3018160  51.1754730   6.7818570
  16.5070920  56.2422190   3.2650650  16.2811840  56.0259360   4.1697270
  15.7263450  56.6750650   2.9196620  18.9470130  57.1407770  13.9310920
  18.8513730  56.2002500  13.7811320  19.7902110  57.3622840  13.5358990
  22.3433550  54.8849100   3.8944580  22.7363120  55.2021300   3.0813270
  22.7050400  54.0060980   4.0089100  14.0780670  53.5521440  12.0844700
  13.6844060  54.3996650  12.2917480  13.3899070  52.9147810  12.2753340
  20.6525720  53.6356410  15.1541440  19.9624040  53.4428610  15.7887530
  21.3958020  53.9191050  15.6865740  11.3797720  51.4749900   6.1174780
  11.0910770  52.0452760   6.8299760  12.1243480  50.9954350   6.4806010
  22.9288690  57.4754850   7.9895360  22.1969810  57.9841660   8.3385460
  22.5313030  56.6584830   7.6884140  19.3666080  54.1509050   6.3947850
  19.3702140  53.7099000   5.5452390  20.2617200  54.4726380   6.5019670
  15.2168460  54.0335540   5.3542060  14.8768510  54.5110770   6.1109110
  14.4545780  53.5800660   4.9943160  23.3914600  52.9288530   7.4018300
  23.4087340  53.3797180   8.2460150  23.1430180  52.0294170   7.6151740
  26.8185350  50.3420710  13.2404680  27.1431120  49.6110370  13.7662660
  26.8541860  50.0234350  12.3385670  13.5176910  61.3634290  12.6604640
  13.1331700  60.7227960  13.2587600  13.8289100  62.0670410  13.2299370
  19.6674050  58.2110830   8.1413260  20.0344180  57.7369400   8.8874600
  19.4779110  59.0852400   8.4821600  12.5314540  52.9554520   4.2706730
  12.2461460  52.5910190   5.1085350  12.4693400  52.2234980   3.6569870
  17.4573420  57.2519470  10.4597470  17.1530490  58.1311450  10.6847830
  18.4119880  57.3119260  10.4954910  26.7443190  60.4545820   6.8490710
  27.4642310  60.9501110   6.4586820  26.5425010  59.7763710   6.2044580
  22.1261990  60.5254880  12.7359710  22.0599300  59.6050550  12.4817300
  21.4967130  60.6230320  13.4504350  16.0292610  61.1260840   4.6943130
  16.5471280  60.3229100   4.6400020  15.5776630  61.0639980   5.5359960
  13.5137150  58.0922210  11.6068830  13.1552090  58.7576060  12.1942170
  13.2191710  57.2605760  11.9781450  16.7150270  58.5506450  14.4908380
  16.4150410  58.6963630  13.5936200  17.4861510  57.9911740  14.3981770
  22.0578720  63.3475450  12.4863510  22.0723260  62.4156410  12.2682420
  21.3503820  63.4335210  13.1253280  28.2689930  59.9882790  11.8332090
  27.5438120  60.5811570  11.6361480  28.7965390  59.9806330  11.0345460
  23.7989520  61.7142960   5.3315940  24.1513340  61.1171090   4.6717310
  22.9151850  61.3887190   5.5024190  19.8852800  62.4740650   2.7386350
  20.5723930  63.0209860   3.1193940  19.0985220  63.0181380   2.7735960
  19.1880010  59.4786680   2.3511710  19.6442790  60.2891930   2.5771900
  18.8368220  59.1609820   3.1830200  21.4912620  64.9893020   9.5804010
  22.1354840  65.1952400  10.2577430  21.8542060  64.2281420   9.1274860
  15.0891790  49.8224330   2.8234230  14.9606420  49.8142230   3.7719150
  14.2653810  50.1607420   2.4725240  22.7644700  62.9925370   8.2981460
  23.4066930  62.2918530   8.4113630  23.2894050  63.7723810   8.1178350
  24.5382320  63.7920270  11.5017520  24.8738560  64.3786960  12.1795440
  23.6182660  63.6612980  11.7315310  12.0885720  51.5815450  12.2840930
  11.3744240  51.7812370  12.8893540  12.5080760  50.8055020  12.6555730
  12.3758310  65.5695710  13.2707460  12.4849430  64.6290450  13.1302850
  11.7238870  65.8350460  12.6221190  20.3670900  63.8411600  14.6705580
  20.0467770  63.1220840  15.2151270  19.6929260  64.5166670  14.7441640
  23.5824500  54.0737760  10.0342380  23.9505320  53.2532970  10.3621950
  22.7222700  54.1339650  10.4498030  18.9170560  55.3080650   2.2587820
  18.2086710  55.7766990   2.7001430  19.2015040  54.6502660   2.8933010
  20.5426490  56.7277350  10.2580350  21.0411740  57.2023170  10.9232200
  20.6849440  55.8040870  10.4650380  22.9485990  52.0331310   3.6983610
  22.8253770  52.0517440   2.7493120  23.8970550  52.0810250   3.8182010
  20.0362780  67.2686610   2.9711590  20.2904280  67.2308000   2.0490960
  19.0875260  67.1419940   2.9639840  27.7493350  52.9445310  11.1008740
  27.2466950  53.6850710  11.4402550  28.5650010  53.3329310  10.7845530
  26.0415360  58.1878490   4.5470100  25.1005500  58.2028720   4.7217790
  26.3559430  57.4014450   4.9930400  28.0440940  65.3587340   6.2224360
  28.1688360  66.1818510   6.6948170  28.9106500  65.1478070   5.8748510
  15.5158470  67.4518550   5.8941490  16.2520950  66.9034010   6.1650060
  15.8999390  68.3174560   5.7547480  12.4003950  63.5192120   1.7683000
  11.4743730  63.7613260   1.7588410  12.8660380  64.3466380   1.6467750
  14.5216750  66.6364620  15.0827070  15.3229480  66.9576670  15.4962470
  14.0068570  66.2760200  15.8046980  23.3581380  62.7444490  15.0302480
  22.7519540  62.7676090  14.2898230  23.0535490  62.0127530  15.5669730
  24.7881750  66.4724780  13.6411890  25.7403500  66.3882800  13.5912130
  24.6409970  67.1366490  14.3145680  12.2414560  59.1238080  14.0263120
  12.7453580  58.5445360  14.5979350  11.5021980  59.4078310  14.5639490
  19.2952500  60.5309070  13.5598640  18.5298170  61.0994070  13.4753310
  19.4768460  60.2385280  12.6666870  26.4375850  62.2614400  14.1173660
  27.1785320  62.5990160  13.6141120  25.6748530  62.4306460  13.5643430
  14.2737640  57.2667670  14.9213190  14.3142980  56.9681540  15.8298420
  15.1283140  57.6675280  14.7620710  16.2143450  55.8459770  12.8887680
  15.6839910  55.3550720  12.2611020  16.8831520  56.2743970  12.3545610
  25.1121510  60.3129230  12.6528870  25.5262530  60.4674310  13.5019290
  24.1772510  60.4384450  12.8154650  25.5843680  57.6525390  14.6568020
  26.1664450  56.8977710  14.5688500  25.7605450  58.1832830  13.8799500
  16.7015750  52.8122140  12.9684970  16.6072620  52.1942890  12.2435840
  16.1213140  53.5388430  12.7414880  19.4677190  51.3695380  10.0012360
  19.0194490  51.3919640   9.1557910  18.8342390  50.9714400  10.5982660
  19.8736740  60.2649710  10.6224800  20.2924850  61.1082440  10.4501040
  18.9545370  60.4021750  10.3931580  22.2100640  57.9965890  12.0062640
  22.3296850  57.4007030  12.7457480  23.0694640  58.0335580  11.5863940
  24.5488540  58.5503080  10.5825150  24.0223760  59.0745700   9.9790290
  24.8919880  59.1830470  11.2134880  17.7244160  66.5702720  11.7382530
  17.1865250  67.2948780  11.4191230  17.9778120  66.0933060  10.9479870
  18.9769410  54.5387240  13.2638460  19.5669100  54.2303090  13.9516280
  18.1589650  54.0666990  13.4198360  23.7962840  54.1553050  13.4971480
  23.1078360  53.4934590  13.4321470  24.5168860  53.7091320  13.9419940
  20.5806370  67.8053930  11.9969180  20.5065070  68.7089070  12.3041550
  19.6785210  67.4865830  11.9691250  11.9833660  65.1328520   5.3002800
  12.3136670  64.2649580   5.0681440  12.4124660  65.3387040   6.1307760
  16.5795580  63.4637530   2.9604770  16.2791120  63.3402500   3.8608680
  16.4733070  62.6046120   2.5520500  12.4723870  65.9999110   8.0384430
  12.0354860  66.1799910   8.8708580  13.0401550  66.7573730   7.8966150
  28.1086050  65.5016110  12.3261740  27.5088040  65.5608670  11.5825660
  28.2379950  64.5621090  12.4558590  12.3048300  58.5119340   4.3973310
  11.6497140  58.2430980   3.7533010  13.1426250  58.4023820   3.9475290
  29.8103930  60.8431510   5.0107580  30.1812760  60.0598830   4.6043550
  30.4505860  61.5320610   4.8324880  26.7937690  62.2268090  10.4237900
  25.9797530  62.6565250  10.6863690  27.2011890  62.8386500   9.8106950
  28.7528470  58.2184770   2.3167600  28.3772070  57.4512700   1.8848890
  28.0231590  58.6007470   2.8042530  13.3424230  58.8971910   8.9376650
  13.7097270  58.8099310   9.8172670  12.7735050  58.1338460   8.8383510
  28.1428090  57.3656290  11.9507120  27.9114180  57.1369040  11.0505070
  28.4032640  58.2855840  11.9052010  12.8940230  55.8081000  12.8435070
  11.9996280  55.7747760  13.1828780  13.4337780  56.0067790  13.6086320
  26.5816160  52.5912720  14.7286820  27.4586340  52.5996120  15.1120820
  26.5937000  51.8543560  14.1179170  28.0279430  56.4442260   5.6174840
  28.5516910  55.9504910   4.9865010  28.6138850  56.5792620   6.3622410
  28.2069150  56.5282130   9.1394390  27.2571860  56.4945670   9.2539380
  28.3882160  57.4382240   8.9044160  13.3979940  50.0829330   7.1918290
  14.0456130  49.5326710   6.7513450  13.8181780  50.3372480   8.0134100
  28.9466560  54.3376560   4.0904930  28.8365840  54.1832600   5.0287200
  29.7074150  53.8097500   3.8480340  27.2932280  50.2770690  10.5487930
  27.9304500  50.8904830  10.9147120  27.4407170  50.3131350   9.6037160
  26.8513740  66.9786690   3.9506170  27.4472810  66.6571260   3.2740590
  27.1091890  66.5058510   4.7419440  13.1511940  50.2385000   9.9343610
  12.8026760  50.6948820  10.7001790  12.8199640  49.3442130  10.0166040
  14.7576310  63.4104600  14.0996800  14.7145940  63.0397510  14.9811260
  14.8887320  64.3482170  14.2398620  18.4582340  64.9664190   9.7006520
  18.2173700  65.2338750   8.8137040  19.3984980  65.1369920   9.7557380
  20.6636760  51.4296880  13.4563030  20.6025650  52.0218710  14.2058440
  21.6037140  51.3222840  13.3113290  23.3011320  51.0866940  13.0955320
  23.9151730  51.4046230  12.4336400  23.8460880  50.6015530  13.7151180
  29.7186500  66.9858570  10.5017160  29.2244780  67.3827440   9.7844290
  29.1099790  66.3607780  10.8954440  13.8232580  49.7661200  13.2094380
  14.3715570  49.5849250  12.4460490  13.8887890  48.9755310  13.7450690
  14.5964340  66.3566850  11.2194580  14.0024660  66.2251550  11.9584620
  14.5888180  65.5204990  10.7536680  24.0419360  49.6499080   9.4224610
  23.1679200  49.9834190   9.2197540  23.9330110  49.1772260  10.2476480
  24.9491340  51.8569950  10.8066330  24.6204700  51.0421710  10.4268060
  25.8973640  51.8139760  10.6832020  27.4025950  67.6281990   7.7803900
  26.9428920  68.3797800   7.4061920  26.7738410  66.9088460   7.7218700
  14.2276570  63.7225230  10.1702620  13.5010630  63.1030520  10.1028570
  14.2885720  64.1165840   9.3000700  17.8321670  65.9370230   6.9552030
  18.3486690  65.3257590   6.4300290  18.4819050  66.4399010   7.4463040
  20.5717170  66.8278720   7.7821010  20.8594980  66.5733020   6.9054020
  21.0840390  66.2756080   8.3726580  21.7894180  50.5668920   8.3617520
  21.0065970  51.0414420   8.6414280  21.4957110  49.6623750   8.2530700
  26.3415250  51.2692020   6.4066610  26.7823340  51.2137120   5.5588210
  26.0722840  52.1850030   6.4776790  28.2053820  50.9007260   4.4175430
  28.1442220  49.9568480   4.2706450  28.9845850  51.0087350   4.9628890
  12.5106570  67.0399620   3.3799380  12.3428610  66.4070300   4.0781270
  11.6441080  67.2459020   3.0293570  19.6748400  52.9855670   3.8733550
  18.8622910  52.6112560   3.5329430  20.1790040  52.2300750   4.1754740
  24.1773380  49.6498120   5.1116620  24.7802750  50.2218330   5.5865140
  23.4366370  50.2137560   4.8890520  17.6997580  51.1355590   2.4778600
  17.0700320  50.4342900   2.6448730  17.1602720  51.8959720   2.2611760
  20.6389530  67.7494820  15.1489210  21.5656840  67.5139090  15.1925170
  20.6239960  68.5766820  14.6675240  28.8734590  67.2920390   2.1463460
  29.0486780  66.6058130   1.5024380  28.1756160  67.8167440   1.7540130
  17.8253140  50.4139570  14.9131090  17.5437410  50.9173170  14.1491910
  18.2072840  49.6161320  14.5473220  24.4268600  49.8293150  15.4911560
  24.3134050  50.1487760  16.3863080  25.2438340  50.2305660  15.1948840
  27.2067090  66.9764680  14.9730250  27.9992410  66.4813910  14.7656210
  27.5000240  67.6554820  15.5805860  23.3326750  39.0742130  79.7263750
  23.2520800  38.1596740  79.4555460  22.9191170  39.5709200  79.0203460
  21.4644790  40.8521150  81.6073020  20.6886890  40.3721590  81.8971590
  22.1157720  40.1726800  81.4329180  15.4810620  41.1640960  82.4848780
  14.6495500  40.9089670  82.8845290  16.0891600  41.2351730  83.2206700
  25.4852220  45.2581340  80.3872150  25.0233750  44.4868580  80.7159320
  26.2977770  45.2847410  80.8924600  15.4611880  45.1981050  82.6806800
  15.7639920  44.3078790  82.5017020  16.2055470  45.7551270  82.4529050
  13.8902570  36.1242850  76.2691170  13.0019270  36.4658820  76.1671050
  14.1743760  35.9243170  75.3772000  11.8535580  38.7248500  82.1530870
  12.4251690  37.9570700  82.1534510  11.8537120  39.0237260  81.2437480
  21.7115530  47.5439350  80.0076140  21.0926970  47.9996850  79.4370580
  22.5667310  47.6990810  79.6065840  20.9053780  43.5278340  81.6143180
  20.8362060  42.5868280  81.4532310  21.6673640  43.6179750  82.1865750
  13.0960450  34.1332860  83.9399800  12.9163290  33.2358610  84.2202560
  12.6940530  34.6804730  84.6146750  21.9358950  36.3348720  81.8412110
  22.3123770  35.4620600  81.7285780  21.8378460  36.6707420  80.9502550
  16.0663960  34.7074350  77.3029550  16.1730710  35.6078080  77.6098310
  15.1556320  34.6592320  77.0124200  25.7183070  33.8299160  78.7740450
  26.5392690  33.3395730  78.8165930  25.7517150  34.4196820  79.5272290
  13.7147120  36.6293360  82.5482140  14.3957230  36.8931730  83.1669540
  13.3995170  35.7894230  82.8820150  17.9071690  37.6760720  81.6354730
  18.4149910  38.1741690  82.2759750  18.4384930  36.8995920  81.4594090
  30.0082620  35.8465910  85.3384080  29.3034790  36.2347620  84.8199190
  30.2740540  36.5416200  85.9405010  16.1907790  32.3159280  85.9018150
  16.1926230  32.8331670  85.0964050  15.3612100  31.8389460  85.8788080
  22.5778880  42.4278590  77.4008050  21.9596150  42.8928040  76.8370770
  23.0902130  43.1206070  77.8177560  17.4410640  41.9554460  84.0791650
  17.1080020  42.5823380  84.7212720  17.6177320  42.4816340  83.2993320
  25.9544550  35.7699540  81.5467990  25.2500120  36.0584430  82.1271100
  26.3156710  36.5799650  81.1867550  15.8723120  34.0269240  83.9088600
  16.2139930  34.8711290  83.6142470  14.9338930  34.1752980  84.0253940
  16.6529740  43.9235260  85.8940830  17.2703740  44.5986340  85.6125280
  15.7922860  44.3323240  85.8028330  11.9462080  43.1135120  74.7747680
  11.5690060  43.6022220  74.0432580  12.2035150  43.7860400  75.4054210
  27.5707330  45.3874670  83.8095470  26.8870850  46.0573780  83.8012140
  28.1101620  45.5855320  83.0440330  29.0231470  35.2154330  81.9377200
  28.0756380  35.2493310  82.0692630  29.3481460  36.0293280  82.3226560
  19.5551010  31.5151510  80.2333190  19.8625990  30.9598400  79.5168690
  18.6251710  31.6495970  80.0506180  25.1066070  47.2318800  82.5240650
  25.1193230  46.8281090  81.6562910  24.5541290  48.0066090  82.4202080
  26.4011490  43.9535020  77.6130820  26.2907820  43.0109350  77.7380240
  26.3979740  44.3150660  78.4993580  24.5051510  42.1348640  83.8523260
  24.9220300  41.9208750  83.0176720  25.2291330  42.3921430  84.4231880
  21.9431770  39.5800340  76.9693310  21.0161050  39.5137720  77.1981780
  22.0956590  40.5180470  76.8548550  21.9300850  35.8517340  73.9660470
  20.9904520  36.0131300  74.0512930  22.2484110  36.5703020  73.4196460
  28.4513610  40.5335860  83.9439500  27.6232240  40.6028950  83.4689630
  29.0464090  41.1190170  83.4755330  25.9729060  41.1420640  77.4728560
  25.3541480  40.8040190  76.8254860  25.9553510  40.4980400  78.1807750
  25.4155620  37.3205180  84.8894370  25.0026800  38.1458890  85.1434360
  24.6831570  36.7350220  84.6970730  17.5488410  40.1065080  79.7513040
  17.1445410  39.3942330  79.2558940  17.6351530  39.7618320  80.6401080
  18.0170110  43.7932640  81.9152250  17.7198400  43.1878110  81.2360030
  18.9669930  43.8309950  81.8041610  16.2617030  36.8808290  83.5312080
  16.8131620  36.9903630  82.7565330  16.7760540  37.2545890  84.2467310
  26.1055720  47.3664510  85.5775350  25.6286280  48.1736700  85.3847960
  25.4217510  46.7142840  85.7301560  24.1493760  40.3807450  74.4801310
  24.5887040  39.5429880  74.3339130  24.8622180  41.0136850  74.5665450
  22.2589140  45.3203520  78.4482550  22.6985050  46.0627850  78.0337940
  22.1976030  45.5630090  79.3721510  27.7310900  31.6350260  72.7942350
  27.4183560  31.7277090  73.6941420  28.4923370  32.2131290  72.7439780
  14.2493040  39.0010060  77.2519690  14.1290640  39.7272150  76.6400960
  13.9393930  38.2312970  76.7747600  11.8878410  42.1725200  83.0588330
  11.9658830  42.3073970  82.1144050  12.5020090  41.4641090  83.2516450
  13.1326040  43.8725390  79.4694510  12.7254120  44.0139980  78.6148110
  14.0239050  43.5885550  79.2665720  24.9259320  48.3072640  75.8045560
  24.7660460  48.0175580  76.7027390  24.7606030  47.5312770  75.2690790
  17.4047700  48.0871170  77.5817180  17.2290180  47.1706710  77.3684980
  16.5503440  48.4458460  77.8214980  24.6285450  45.8160200  74.3643560
  23.9350610  45.8137490  73.7045840  25.3708310  45.3919520  73.9337730
  24.1935380  47.4422910  78.4392050  24.6492330  46.6612290  78.7530670
  24.5327900  48.1529730  78.9833230  11.9437930  43.2139370  85.5982790
  12.1068970  42.7444730  84.7802160  12.4090380  42.7062930  86.2631630
  16.7156700  32.3445130  80.6343360  16.2724850  33.1254670  80.3027880
  17.2741690  32.6675020  81.3414300  19.8315520  31.9655830  75.5149190
  19.2069700  31.9615700  76.2402500  19.7445640  31.0986790  75.1185160
  18.7532600  32.8892460  82.4932960  19.0504930  33.7955290  82.4124980
  19.3018160  32.4011240  81.8792530  16.5070920  37.4678700  78.3624610
  16.2811840  37.2515870  79.2671230  15.7263450  37.9007160  78.0170580
  23.7368680  37.4742070  76.9615260  23.1377570  38.1977870  76.7778880
  24.2848290  37.4118850  76.1791710  22.3433550  36.1105610  78.9918540
  22.7363120  36.4277810  78.1787230  22.7050400  35.2317490  79.1063060
  11.3797720  32.7006410  81.2148740  11.0910770  33.2709270  81.9273720
  12.1243480  32.2210860  81.5779970  11.5667950  36.6426530  72.4251460
  11.4842620  37.5857290  72.5666450  11.2151010  36.5001440  71.5463810
  22.9288690  38.7011360  83.0869320  22.1969810  39.2098170  83.4359420
  22.5313030  37.8841340  82.7858100  19.3666080  35.3765560  81.4921810
  19.3702140  34.9355510  80.6426350  20.2617200  35.6982890  81.5993630
  15.2168460  35.2592050  80.4516020  14.8768510  35.7367280  81.2083070
  14.4545780  34.8057170  80.0917120  19.4286230  36.3777640  74.4828570
  19.5499050  36.3364120  75.4314390  19.0434740  37.2401790  74.3275300
  23.3914600  34.1545040  82.4992260  23.4087340  34.6053690  83.3434110
  23.1430180  33.2550680  82.7125700  18.4407730  38.6878780  73.8811870
  17.8724630  38.2397030  73.2547780  19.1496730  39.0471560  73.3477020
  19.6674050  39.4367340  83.2387220  20.0344180  38.9625910  83.9848560
  19.4779110  40.3108910  83.5795560  12.5314540  34.1811030  79.3680690
  12.2461460  33.8166700  80.2059310  12.4693400  33.4491490  78.7543830
  17.4573420  38.4775980  85.5571430  17.1530490  39.3567960  85.7821790
  18.4119880  38.5375770  85.5928870  15.9855210  42.6836970  76.1538280
  15.2117470  42.1434590  75.9937000  16.7149840  42.1643580  75.8156040
  26.7443190  41.6802330  81.9464670  27.4642310  42.1757620  81.5560780
  26.5425010  41.0020220  81.3018540  22.2053130  33.0740290  76.0894060
  21.3917740  32.5753460  76.0139370  22.0115080  33.9138540  75.6730410
  24.9201520  37.4459940  74.3856220  25.8081140  37.7577170  74.2107560
  24.8906610  36.5732190  73.9936800  16.0292610  42.3517350  79.7917090
  16.5471280  41.5485610  79.7373980  15.5776630  42.2896490  80.6333920
  20.9162110  43.6183630  75.0644390  21.2577810  44.3625860  74.5687710
  20.0874820  43.9314750  75.4269220  27.1915790  38.7571780  73.8536080
  27.1079510  39.1886000  73.0032520  27.9109980  39.2170130  74.2862900
  28.2203040  45.6114040  76.5818210  27.5779200  44.9569660  76.8561930
  27.8333700  46.0169130  75.8058880  23.7989520  42.9399470  80.4289900
  24.1513340  42.3427600  79.7691270  22.9151850  42.6143700  80.5998150
  19.8852800  43.6997160  77.8360310  20.5723930  44.2466370  78.2167900
  19.0985220  44.2437890  77.8709920  12.0245200  39.3169980  73.3277390
  12.8940050  39.5994780  73.6113310  11.5335520  40.1305850  73.2126200
  19.1880010  40.7043190  77.4485670  19.6442790  41.5148440  77.6745860
  18.8368220  40.3866330  78.2804160  21.4912620  46.2149530  84.6777970
  22.1354840  46.4208910  85.3551390  21.8542060  45.4537930  84.2248820
  15.0891790  31.0480840  77.9208190  14.9606420  31.0398740  78.8693110
  14.2653810  31.3863930  77.5699200  22.7644700  44.2181880  83.3955420
  23.4066930  43.5175040  83.5087590  23.2894050  44.9980320  83.2152310
  26.6100420  44.5030500  73.1194560  26.3838000  43.7860940  73.7119200
  26.2196620  44.2542940  72.2816310  12.3916450  48.5297360  73.8939020
  12.7514090  49.1286700  73.2396290  12.2508790  49.0757250  74.6674050
  26.1916670  42.4202440  74.7808720  25.9038370  42.8815130  75.5686600
  26.9868840  41.9600210  75.0492940  18.4085070  45.9128560  74.7112690
  18.3995170  46.6458250  74.0957200  17.4883430  45.6660140  74.8039650
  14.0091710  41.1343450  75.4559450  13.4019660  41.8742350  75.4654750
  14.4841060  41.2242810  74.6297650  23.5824500  35.2994270  85.1316340
  23.9505320  34.4789480  85.4595910  22.7222700  35.3596160  85.5471990
  26.9486530  34.2551210  75.9403900  26.3199690  34.3596880  75.2262130
  26.4538450  34.4747990  76.7297780  21.3944670  45.9756800  73.3737880
  21.4956650  45.7720790  72.4439860  20.4946410  45.7215080  73.5785660
  18.9170560  36.5337160  77.3561780  18.2086710  37.0023500  77.7975390
  19.2015040  35.8759170  77.9906970  20.5426490  37.9533860  85.3554310
  21.0411740  38.4279680  86.0206160  20.6849440  37.0297380  85.5624340
  22.9485990  33.2587820  78.7957570  22.8253770  33.2773950  77.8467080
  23.8970550  33.3066760  78.9155970  20.0362780  48.4943120  78.0685550
  20.2904280  48.4564510  77.1464920  19.0875260  48.3676450  78.0613800
  17.1205580  34.8422240  74.7312490  17.9696110  35.2792390  74.6652680
  16.7536850  35.1542500  75.5584550  26.0415360  39.4135000  79.6444060
  25.1005500  39.4285230  79.8191750  26.3559430  38.6270960  80.0904360
  16.0197000  41.0954600  73.2048020  16.7860270  40.9835960  73.7673450
  16.0971690  40.3992570  72.5524790  14.7143760  38.5279670  73.8880910
  14.7947350  37.5807180  73.9998310  15.6063510  38.8586550  73.9941570
  28.0440940  46.5843850  81.3198320  28.1688360  47.4075020  81.7922130
  28.9106500  46.3734580  80.9722470  15.5158470  48.6775060  80.9915450
  16.2520950  48.1290520  81.2624020  15.8999390  49.5431070  80.8521440
  12.4003950  44.7448630  76.8656960  11.4743730  44.9869770  76.8562370
  12.8660380  45.5722890  76.7441710  18.6260780  47.8505370  72.8141020
  19.4189390  48.1394200  72.3622810  18.1065130  47.4197540  72.1353500
  27.6790950  47.0775500  74.2377760  27.3932460  46.6640640  73.4231940
  27.4810500  48.0063210  74.1178280  19.1438180  43.0708780  72.6783370
  19.0388820  42.4561130  73.4044750  18.9762400  42.5474670  71.8946380
  22.3840910  42.1328810  73.2825360  21.8351010  42.5798110  73.9268100
  23.0060170  41.6278060  73.8063030  18.0516030  41.0919730  75.1790660
  18.4732450  40.9259600  76.0222050  18.1766870  40.2819960  74.6845800
  20.5643670  40.1157340  72.4267760  21.0849330  39.4006360  72.0608910
  21.2112070  40.7543210  72.7268270  19.4677190  32.5951890  85.0986320
  19.0194490  32.6176150  84.2531870  18.8342390  32.1970910  85.6956620
  19.8736740  41.4906220  85.7198760  20.2924850  42.3338950  85.5475000
  18.9545370  41.6278260  85.4905540  16.9474930  37.1652960  72.1248820
  16.7463990  36.3020320  72.4862160  16.7766980  37.0786320  71.1870420
  24.4263240  31.9761190  74.6535700  24.7065530  31.1329090  75.0095120
  23.6528970  32.2084300  75.1674450  15.7457730  34.2653580  72.1126700
  16.0483630  34.2721010  71.2045850  16.4852320  33.9151440  72.6094360
  18.9642660  33.2088200  73.0982900  18.6164660  32.5312190  72.5185350
  19.1655430  32.7477710  73.9126290  21.1291700  48.1968950  74.7169500
  22.0242490  48.5353920  74.7388260  21.1609330  47.4748360  74.0893780
  14.7687860  43.5696000  72.9456500  15.2062730  44.1125670  73.6014080
  15.2535590  42.7442950  72.9552840  11.9833660  46.3585030  80.3976760
  12.3136670  45.4906090  80.1655400  12.4124660  46.5643550  81.2281720
  16.5795580  44.6894040  78.0578730  16.2791120  44.5659010  78.9582640
  16.4733070  43.8302630  77.6494460  12.4723870  47.2255620  83.1358390
  12.0354860  47.4056420  83.9682540  13.0401550  47.9830240  82.9940110
  29.3487500  44.4690440  72.7605410  28.5180460  44.5367090  73.2312640
  29.5259330  45.3594560  72.4572270  28.8043960  41.2137920  75.2639610
  29.5662870  41.7834570  75.3699300  28.8198330  40.6465120  76.0347920
  12.3048300  39.7375850  79.4947270  11.6497140  39.4687490  78.8506970
  13.1426250  39.6280330  79.0449250  29.8103930  42.0688020  80.1081540
  30.1812760  41.2855340  79.7017510  30.4505860  42.7577120  79.9298840
  26.7937690  43.4524600  85.5211860  25.9797530  43.8821760  85.7837650
  27.2011890  44.0643010  84.9080910  28.8563130  41.5072290  72.4212130
  29.1311970  42.4151170  72.2931350  28.6673870  41.4434820  73.3574120
  25.2538740  34.5317140  73.7165760  25.6723620  34.3448120  72.8762420
  24.9474800  33.6796190  74.0268690  28.7528470  39.4441280  77.4141560
  28.3772070  38.6769210  76.9822850  28.0231590  39.8263980  77.9016490
  13.3424230  40.1228420  84.0350610  13.7097270  40.0355820  84.9146630
  12.7735050  39.3594970  83.9357470  11.5186380  36.9474780  75.4372600
  10.6150460  37.2104980  75.2624260  12.0027000  37.2185950  74.6572560
  28.0279430  37.6698770  80.7148800  28.5516910  37.1761420  80.0838970
  28.6138850  37.8049130  81.4596370  28.2069150  37.7538640  84.2368350
  27.2571860  37.7202180  84.3513340  28.3882160  38.6638750  84.0018120
  14.0613590  36.0040320  73.3466980  14.7705290  35.5823540  72.8614260
  13.3453530  36.0715550  72.7150330  13.7087750  32.0579650  72.3869630
  14.4315880  32.5988590  72.7050850  13.9812270  31.7843070  71.5111170
  27.5179400  36.9272120  76.6541210  28.0138520  36.6942990  77.4390090
  27.3195470  36.0883960  76.2378850  13.3979940  31.3085840  82.2892250
  14.0456130  30.7583220  81.8487410  13.8181780  31.5628990  83.1108060
  28.9466560  35.5633070  79.1878890  28.8365840  35.4089110  80.1261160
  29.7074150  35.0354010  78.9454300  27.2932280  31.5027200  85.6461890
  27.9304500  32.1161340  86.0121080  27.4407170  31.5387860  84.7011120
  29.8356830  33.3940990  72.4285030  30.7606140  33.2622170  72.2203320
  29.8132620  33.4733810  73.3821480  29.9095320  34.1651650  75.0541740
  29.1146820  34.0996770  75.5834650  30.1138600  35.1002290  75.0427090
  26.8513740  48.2043200  79.0480130  27.4472810  47.8827770  78.3714550
  27.1091890  47.7315020  79.8393400  13.1511940  31.4641510  85.0317570
  12.8026760  31.9205330  85.7975750  12.8199640  30.5698640  85.1140000
  18.4582340  46.1920700  84.7980480  18.2173700  46.4595260  83.9111000
  19.3984980  46.3626430  84.8531340  29.7186500  48.2115080  85.5991120
  29.2244780  48.6083950  84.8818250  29.1099790  47.5864290  85.9928400
  24.0419360  30.8755590  84.5198570  23.1679200  31.2090700  84.3171500
  23.9330110  30.4028770  85.3450440  24.9491340  33.0826460  85.9040290
  24.6204700  32.2678220  85.5242020  25.8973640  33.0396270  85.7805980
  27.4025950  48.8538500  82.8777860  26.9428920  49.6054310  82.5035880
  26.7738410  48.1344970  82.8192660  14.2276570  44.9481740  85.2676580
  13.5010630  44.3287030  85.2002530  14.2885720  45.3422350  84.3974660
  17.8321670  47.1626740  82.0525990  18.3486690  46.5514100  81.5274250
  18.4819050  47.6655520  82.5437000  20.5717170  48.0535230  82.8794970
  20.8594980  47.7989530  82.0027980  21.0840390  47.5012590  83.4700540
  21.7894180  31.7925430  83.4591480  21.0065970  32.2670930  83.7388240
  21.4957110  30.8880260  83.3504660  26.3415250  32.4948530  81.5040570
  26.7823340  32.4393630  80.6562170  26.0722840  33.4106540  81.5750750
  28.2053820  32.1263770  79.5149390  28.1442220  31.1824990  79.3680410
  28.9845850  32.2343860  80.0602850  12.5106570  48.2656130  78.4773340
  12.3428610  47.6326810  79.1755230  11.6441080  48.4715530  78.1267530
  13.1334590  32.0972910  75.9805200  13.8913950  32.2101790  75.4069230
  12.6711760  32.9342110  75.9348630  19.6748400  34.2112180  78.9707510
  18.8622910  33.8369070  78.6303390  20.1790040  33.4557260  79.2728700
  24.1773380  30.8754630  80.2090580  24.7802750  31.4474840  80.6839100
  23.4366370  31.4394070  79.9864480  27.3207980  31.2776190  75.4830860
  27.5158610  32.1759640  75.7498290  26.5337850  31.0463270  75.9763810
  14.1169270  46.9589360  75.9223480  13.5916890  47.3397390  75.2185440
  14.0413850  47.5840130  76.6433190  15.5059740  32.6236960  74.5207170
  16.0352500  31.8366760  74.3915120  16.1388060  33.3028150  74.7542700
  17.6997580  32.3612100  77.5752560  17.0700320  31.6599410  77.7422690
  17.1602720  33.1216230  77.3585720  28.8734590  48.5176900  77.2437420
  29.0486780  47.8314640  76.5998340  28.1756160  49.0423950  76.8514090
  16.7162240  48.9071740  74.7972730  17.4481060  48.6231020  74.2496620
  16.9755910  48.6685020  75.6872110  15.8777030  45.0236470  74.8019060
  15.2485910  45.4921570  75.3504890  15.9924860  44.1785690  75.2365250
  21.4644790  40.8521150  62.8329530  20.6886890  40.3721590  63.1228100
  22.1157720  40.1726800  62.6585690  15.4810620  41.1640960  63.7105290
  14.6495500  40.9089670  64.1101800  16.0891600  41.2351730  64.4463210
  25.4852220  45.2581340  61.6128660  25.0233750  44.4868580  61.9415830
  26.2977770  45.2847410  62.1181110  15.4611880  45.1981050  63.9063310
  15.7639920  44.3078790  63.7273530  16.2055470  45.7551270  63.6785560
  13.8902570  36.1242850  57.4947680  13.0019270  36.4658820  57.3927560
  14.1743760  35.9243170  56.6028510  11.8535580  38.7248500  63.3787380
  12.4251690  37.9570700  63.3791020  11.8537120  39.0237260  62.4693990
  21.7115530  47.5439350  61.2332650  21.0926970  47.9996850  60.6627090
  22.5667310  47.6990810  60.8322350  20.9053780  43.5278340  62.8399690
  20.8362060  42.5868280  62.6788820  21.6673640  43.6179750  63.4122260
  13.0960450  34.1332860  65.1656310  12.9163290  33.2358610  65.4459070
  12.6940530  34.6804730  65.8403260  21.9358950  36.3348720  63.0668620
  22.3123770  35.4620600  62.9542290  21.8378460  36.6707420  62.1759060
  16.0663960  34.7074350  58.5286060  16.1730710  35.6078080  58.8354820
  15.1556320  34.6592320  58.2380710  13.7147120  36.6293360  63.7738650
  14.3957230  36.8931730  64.3926050  13.3995170  35.7894230  64.1076660
  17.9071690  37.6760720  62.8611240  18.4149910  38.1741690  63.5016260
  18.4384930  36.8995920  62.6850600  16.1907790  32.3159280  67.1274660
  16.1926230  32.8331670  66.3220560  15.3612100  31.8389460  67.1044590
  17.4410640  41.9554460  65.3048160  17.1080020  42.5823380  65.9469230
  17.6177320  42.4816340  64.5249830  15.8723120  34.0269240  65.1345110
  16.2139930  34.8711290  64.8398980  14.9338930  34.1752980  65.2510450
  16.6529740  43.9235260  67.1197340  17.2703740  44.5986340  66.8381790
  15.7922860  44.3323240  67.0284840  11.9462080  43.1135120  56.0004190
  11.5690060  43.6022220  55.2689090  12.2035150  43.7860400  56.6310720
  27.5707330  45.3874670  65.0351980  26.8870850  46.0573780  65.0268650
  28.1101620  45.5855320  64.2696840  19.5551010  31.5151510  61.4589700
  19.8625990  30.9598400  60.7425200  18.6251710  31.6495970  61.2762690
  25.1066070  47.2318800  63.7497160  25.1193230  46.8281090  62.8819420
  24.5541290  48.0066090  63.6458590  24.5051510  42.1348640  65.0779770
  24.9220300  41.9208750  64.2433230  25.2291330  42.3921430  65.6488390
  25.4155620  37.3205180  66.1150880  25.0026800  38.1458890  66.3690870
  24.6831570  36.7350220  65.9227240  17.5488410  40.1065080  60.9769550
  17.1445410  39.3942330  60.4815450  17.6351530  39.7618320  61.8657590
  18.0170110  43.7932640  63.1408760  17.7198400  43.1878110  62.4616540
  18.9669930  43.8309950  63.0298120  16.2617030  36.8808290  64.7568590
  16.8131620  36.9903630  63.9821840  16.7760540  37.2545890  65.4723820
  26.1055720  47.3664510  66.8031860  25.6286280  48.1736700  66.6104470
  25.4217510  46.7142840  66.9558070  17.1088540  43.5314330  69.7916560
  16.2117070  43.7554300  70.0389960  17.1341410  43.6549270  68.8427960
  15.9359760  40.4027650  68.3673930  15.7967530  41.2750450  68.7361330
  15.0541120  40.0600460  68.2221870  22.2589140  45.3203520  59.6739060
  22.6985050  46.0627850  59.2594450  22.1976030  45.5630090  60.5978020
  17.7340110  46.3449350  70.5759080  17.7055540  46.7492300  69.7087510
  17.5705080  45.4159710  70.4130680  14.2493040  39.0010060  58.4776200
  14.1290640  39.7272150  57.8657470  13.9393930  38.2312970  58.0004110
  29.6854930  47.1276450  71.8723250  30.1614650  47.6059340  72.5512330
  30.3062090  47.0593940  71.1468750  11.8878410  42.1725200  64.2844840
  11.9658830  42.3073970  63.3400560  12.5020090  41.4641090  64.4772960
  13.1326040  43.8725390  60.6951020  12.7254120  44.0139980  59.8404620
  14.0239050  43.5885550  60.4922230  29.0888180  44.3189300  69.0323260
  29.2151240  44.0801180  68.1140440  29.1309560  43.4873840  69.5045340
  22.9504920  48.0217300  67.6018070  23.4649590  47.9325310  68.4040500
  22.1074000  48.3677000  67.8945980  17.4047700  48.0871170  58.8073690
  17.2290180  47.1706710  58.5941490  16.5503440  48.4458460  59.0471490
  24.1935380  47.4422910  59.6648560  24.6492330  46.6612290  59.9787180
  24.5327900  48.1529730  60.2089740  28.9412190  36.3721760  69.9973000
  28.3256460  36.8801430  69.4688460  28.6208610  35.4720090  69.9398940
  11.9437930  43.2139370  66.8239300  12.1068970  42.7444730  66.0058670
  12.4090380  42.7062930  67.4888140  16.7156700  32.3445130  61.8599870
  16.2724850  33.1254670  61.5284390  17.2741690  32.6675020  62.5670810
  21.0026510  35.2113650  67.4635190  20.5405880  35.4196670  68.2755130
  20.6004620  34.3973000  67.1605860  26.0031020  36.4322600  68.5931850
  25.1524610  36.1328350  68.9140920  25.8432810  36.6764610  67.6815670
  23.0980730  37.9324350  70.6930640  23.4234140  37.0988100  70.3532870
  23.8861060  38.4552870  70.8408970  19.8315520  31.9655830  56.7405700
  19.2069700  31.9615700  57.4659010  19.7445640  31.0986790  56.3441670
  18.7532600  32.8892460  63.7189470  19.0504930  33.7955290  63.6381490
  19.3018160  32.4011240  63.1049040  16.5070920  37.4678700  59.5881120
  16.2811840  37.2515870  60.4927740  15.7263450  37.9007160  59.2427090
  18.9470130  38.3664280  70.2541390  18.8513730  37.4259010  70.1041790
  19.7902110  38.5879350  69.8589460  14.0780670  34.7777950  68.4075170
  13.6844060  35.6253160  68.6147950  13.3899070  34.1404320  68.5983810
  20.6525720  34.8612920  71.4771910  19.9624040  34.6685120  72.1118000
  21.3958020  35.1447560  72.0096210  11.3797720  32.7006410  62.4405250
  11.0910770  33.2709270  63.1530230  12.1243480  32.2210860  62.8036480
  11.5667950  36.6426530  53.6507970  11.4842620  37.5857290  53.7922960
  11.2151010  36.5001440  52.7720320  22.9288690  38.7011360  64.3125830
  22.1969810  39.2098170  64.6615930  22.5313030  37.8841340  64.0114610
  19.3666080  35.3765560  62.7178320  19.3702140  34.9355510  61.8682860
  20.2617200  35.6982890  62.8250140  15.2168460  35.2592050  61.6772530
  14.8768510  35.7367280  62.4339580  14.4545780  34.8057170  61.3173630
  19.4286230  36.3777640  55.7085080  19.5499050  36.3364120  56.6570900
  19.0434740  37.2401790  55.5531810  23.3914600  34.1545040  63.7248770
  23.4087340  34.6053690  64.5690620  23.1430180  33.2550680  63.9382210
  18.4407730  38.6878780  55.1068380  17.8724630  38.2397030  54.4804290
  19.1496730  39.0471560  54.5733530  26.8185350  31.5677220  69.5635150
  27.1431120  30.8366880  70.0893130  26.8541860  31.2490860  68.6616140
  13.5176910  42.5890800  68.9835110  13.1331700  41.9484470  69.5818070
  13.8289100  43.2926920  69.5529840  19.6674050  39.4367340  64.4643730
  20.0344180  38.9625910  65.2105070  19.4779110  40.3108910  64.8052070
  12.5314540  34.1811030  60.5937200  12.2461460  33.8166700  61.4315820
  12.4693400  33.4491490  59.9800340  17.4573420  38.4775980  66.7827940
  17.1530490  39.3567960  67.0078300  18.4119880  38.5375770  66.8185380
  15.9855210  42.6836970  57.3794790  15.2117470  42.1434590  57.2193510
  16.7149840  42.1643580  57.0412550  26.7443190  41.6802330  63.1721180
  27.4642310  42.1757620  62.7817290  26.5425010  41.0020220  62.5275050
  22.1261990  41.7511390  69.0590180  22.0599300  40.8307060  68.8047770
  21.4967130  41.8486830  69.7734820  16.0292610  42.3517350  61.0173600
  16.5471280  41.5485610  60.9630490  15.5776630  42.2896490  61.8590430
  13.5137150  39.3178720  67.9299300  13.1552090  39.9832570  68.5172640
  13.2191710  38.4862270  68.3011920  16.7150270  39.7762960  70.8138850
  16.4150410  39.9220140  69.9166670  17.4861510  39.2168250  70.7212240
  22.0578720  44.5731960  68.8093980  22.0723260  43.6412920  68.5912890
  21.3503820  44.6591720  69.4483750  28.2689930  41.2139300  68.1562560
  27.5438120  41.8068080  67.9591950  28.7965390  41.2062840  67.3575930
  23.7989520  42.9399470  61.6546410  24.1513340  42.3427600  60.9947780
  22.9151850  42.6143700  61.8254660  12.0245200  39.3169980  54.5533900
  12.8940050  39.5994780  54.8369820  11.5335520  40.1305850  54.4382710
  21.4912620  46.2149530  65.9034480  22.1354840  46.4208910  66.5807900
  21.8542060  45.4537930  65.4505330  15.0891790  31.0480840  59.1464700
  14.9606420  31.0398740  60.0949620  14.2653810  31.3863930  58.7955710
  22.7644700  44.2181880  64.6211930  23.4066930  43.5175040  64.7344100
  23.2894050  44.9980320  64.4408820  24.5382320  45.0176780  67.8247990
  24.8738560  45.6043470  68.5025910  23.6182660  44.8869490  68.0545780
  12.3916450  48.5297360  55.1195530  12.7514090  49.1286700  54.4652800
  12.2508790  49.0757250  55.8930560  12.0885720  32.8071960  68.6071400
  11.3744240  33.0068880  69.2124010  12.5080760  32.0311530  68.9786200
  12.3758310  46.7952220  69.5937930  12.4849430  45.8546960  69.4533320
  11.7238870  47.0606970  68.9451660  20.3670900  45.0668110  70.9936050
  20.0467770  44.3477350  71.5381740  19.6929260  45.7423180  71.0672110
  14.0091710  41.1343450  56.6815960  13.4019660  41.8742350  56.6911260
  14.4841060  41.2242810  55.8554160  23.5824500  35.2994270  66.3572850
  23.9505320  34.4789480  66.6852420  22.7222700  35.3596160  66.7728500
  18.9170560  36.5337160  58.5818290  18.2086710  37.0023500  59.0231900
  19.2015040  35.8759170  59.2163480  20.5426490  37.9533860  66.5810820
  21.0411740  38.4279680  67.2462670  20.6849440  37.0297380  66.7880850
  17.1205580  34.8422240  55.9569000  17.9696110  35.2792390  55.8909190
  16.7536850  35.1542500  56.7841060  16.0197000  41.0954600  54.4304530
  16.7860270  40.9835960  54.9929960  16.0971690  40.3992570  53.7781300
  14.7143760  38.5279670  55.1137420  14.7947350  37.5807180  55.2254820
  15.6063510  38.8586550  55.2198080  28.0440940  46.5843850  62.5454830
  28.1688360  47.4075020  63.0178640  28.9106500  46.3734580  62.1978980
  15.5158470  48.6775060  62.2171960  16.2520950  48.1290520  62.4880530
  15.8999390  49.5431070  62.0777950  12.4003950  44.7448630  58.0913470
  11.4743730  44.9869770  58.0818880  12.8660380  45.5722890  57.9698220
  14.5216750  47.8621130  71.4057540  15.3229480  48.1833180  71.8192940
  14.0068570  47.5016710  72.1277450  23.3581380  43.9701000  71.3532950
  22.7519540  43.9932600  70.6128700  23.0535490  43.2384040  71.8900200
  24.7881750  47.6981290  69.9642360  25.7403500  47.6139310  69.9142600
  24.6409970  48.3623000  70.6376150  12.2414560  40.3494590  70.3493590
  12.7453580  39.7701870  70.9209820  11.5021980  40.6334820  70.8869960
  19.2952500  41.7565580  69.8829110  18.5298170  42.3250580  69.7983780
  19.4768460  41.4641790  68.9897340  26.4375850  43.4870910  70.4404130
  27.1785320  43.8246670  69.9371590  25.6748530  43.6562970  69.8873900
  14.2737640  38.4924180  71.2443660  14.3142980  38.1938050  72.1528890
  15.1283140  38.8931790  71.0851180  16.2143450  37.0716280  69.2118150
  15.6839910  36.5807230  68.5841490  16.8831520  37.5000480  68.6776080
  25.1121510  41.5385740  68.9759340  25.5262530  41.6930820  69.8249760
  24.1772510  41.6640960  69.1385120  25.5843680  38.8781900  70.9798490
  26.1664450  38.1234220  70.8918970  25.7605450  39.4089340  70.2029970
  16.7015750  34.0378650  69.2915440  16.6072620  33.4199400  68.5666310
  16.1213140  34.7644940  69.0645350  19.4677190  32.5951890  66.3242830
  19.0194490  32.6176150  65.4788380  18.8342390  32.1970910  66.9213130
  19.8736740  41.4906220  66.9455270  20.2924850  42.3338950  66.7731510
  18.9545370  41.6278260  66.7162050  22.2100640  39.2222400  68.3293110
  22.3296850  38.6263540  69.0687950  23.0694640  39.2592090  67.9094410
  24.5488540  39.7759590  66.9055620  24.0223760  40.3002210  66.3020760
  24.8919880  40.4086980  67.5365350  16.9474930  37.1652960  53.3505330
  16.7463990  36.3020320  53.7118670  16.7766980  37.0786320  52.4126930
  17.7244160  47.7959230  68.0613000  17.1865250  48.5205290  67.7421700
  17.9778120  47.3189570  67.2710340  18.9769410  35.7643750  69.5868930
  19.5669100  35.4559600  70.2746750  18.1589650  35.2923500  69.7428830
  23.7962840  35.3809560  69.8201950  23.1078360  34.7191100  69.7551940
  24.5168860  34.9347830  70.2650410  15.7457730  34.2653580  53.3383210
  16.0483630  34.2721010  52.4302360  16.4852320  33.9151440  53.8350870
  20.5806370  49.0310440  68.3199650  20.5065070  49.9345580  68.6272020
  19.6785210  48.7122340  68.2921720  18.9642660  33.2088200  54.3239410
  18.6164660  32.5312190  53.7441860  19.1655430  32.7477710  55.1382800
  14.7687860  43.5696000  54.1713010  15.2062730  44.1125670  54.8270590
  15.2535590  42.7442950  54.1809350  11.9833660  46.3585030  61.6233270
  12.3136670  45.4906090  61.3911910  12.4124660  46.5643550  62.4538230
  16.5795580  44.6894040  59.2835240  16.2791120  44.5659010  60.1839150
  16.4733070  43.8302630  58.8750970  12.4723870  47.2255620  64.3614900
  12.0354860  47.4056420  65.1939050  13.0401550  47.9830240  64.2196620
  28.1086050  46.7272620  68.6492210  27.5088040  46.7865180  67.9056130
  28.2379950  45.7877600  68.7789060  12.3048300  39.7375850  60.7203780
  11.6497140  39.4687490  60.0763480  13.1426250  39.6280330  60.2705760
  26.7937690  43.4524600  66.7468370  25.9797530  43.8821760  67.0094160
  27.2011890  44.0643010  66.1337420  13.3424230  40.1228420  65.2607120
  13.7097270  40.0355820  66.1403140  12.7735050  39.3594970  65.1613980
  28.1428090  38.5912800  68.2737590  27.9114180  38.3625550  67.3735540
  28.4032640  39.5112350  68.2282480  12.8940230  37.0337510  69.1665540
  11.9996280  37.0004270  69.5059250  13.4337780  37.2324300  69.9316790
  26.5816160  33.8169230  71.0517290  27.4586340  33.8252630  71.4351290
  26.5937000  33.0800070  70.4409640  11.5186380  36.9474780  56.6629110
  10.6150460  37.2104980  56.4880770  12.0027000  37.2185950  55.8829070
  14.0613590  36.0040320  54.5723490  14.7705290  35.5823540  54.0870770
  13.3453530  36.0715550  53.9406840  13.7087750  32.0579650  53.6126140
  14.4315880  32.5988590  53.9307360  13.9812270  31.7843070  52.7367680
  13.3979940  31.3085840  63.5148760  14.0456130  30.7583220  63.0743920
  13.8181780  31.5628990  64.3364570  27.2932280  31.5027200  66.8718400
  27.9304500  32.1161340  67.2377590  27.4407170  31.5387860  65.9267630
  26.8513740  48.2043200  60.2736640  27.4472810  47.8827770  59.5971060
  27.1091890  47.7315020  61.0649910  13.1511940  31.4641510  66.2574080
  12.8026760  31.9205330  67.0232260  12.8199640  30.5698640  66.3396510
  14.7576310  44.6361110  70.4227270  14.7145940  44.2654020  71.3041730
  14.8887320  45.5738680  70.5629090  18.4582340  46.1920700  66.0236990
  18.2173700  46.4595260  65.1367510  19.3984980  46.3626430  66.0787850
  20.6636760  32.6553390  69.7793500  20.6025650  33.2475220  70.5288910
  21.6037140  32.5479350  69.6343760  23.3011320  32.3123450  69.4185790
  23.9151730  32.6302740  68.7566870  23.8460880  31.8272040  70.0381650
  29.7186500  48.2115080  66.8247630  29.2244780  48.6083950  66.1074760
  29.1099790  47.5864290  67.2184910  13.8232580  30.9917710  69.5324850
  14.3715570  30.8105760  68.7690960  13.8887890  30.2011820  70.0681160
  14.5964340  47.5823360  67.5425050  14.0024660  47.4508060  68.2815090
  14.5888180  46.7461500  67.0767150  24.0419360  30.8755590  65.7455080
  23.1679200  31.2090700  65.5428010  23.9330110  30.4028770  66.5706950
  24.9491340  33.0826460  67.1296800  24.6204700  32.2678220  66.7498530
  25.8973640  33.0396270  67.0062490  27.4025950  48.8538500  64.1034370
  26.9428920  49.6054310  63.7292390  26.7738410  48.1344970  64.0449170
  14.2276570  44.9481740  66.4933090  13.5010630  44.3287030  66.4259040
  14.2885720  45.3422350  65.6231170  17.8321670  47.1626740  63.2782500
  18.3486690  46.5514100  62.7530760  18.4819050  47.6655520  63.7693510
  20.5717170  48.0535230  64.1051480  20.8594980  47.7989530  63.2284490
  21.0840390  47.5012590  64.6957050  21.7894180  31.7925430  64.6847990
  21.0065970  32.2670930  64.9644750  21.4957110  30.8880260  64.5761170
  12.5106570  48.2656130  59.7029850  12.3428610  47.6326810  60.4011740
  11.6441080  48.4715530  59.3524040  13.1334590  32.0972910  57.2061710
  13.8913950  32.2101790  56.6325740  12.6711760  32.9342110  57.1605140
  19.6748400  34.2112180  60.1964020  18.8622910  33.8369070  59.8559900
  20.1790040  33.4557260  60.4985210  24.1773380  30.8754630  61.4347090
  24.7802750  31.4474840  61.9095610  23.4366370  31.4394070  61.2120990
  14.1169270  46.9589360  57.1479990  13.5916890  47.3397390  56.4441950
  14.0413850  47.5840130  57.8689700  15.5059740  32.6236960  55.7463680
  16.0352500  31.8366760  55.6171630  16.1388060  33.3028150  55.9799210
  17.6997580  32.3612100  58.8009070  17.0700320  31.6599410  58.9679200
  17.1602720  33.1216230  58.5842230  20.6389530  48.9751330  71.4719680
  21.5656840  48.7395600  71.5155640  20.6239960  49.8023330  70.9905710
  28.8734590  48.5176900  58.4693930  29.0486780  47.8314640  57.8254850
  28.1756160  49.0423950  58.0770600  17.8253140  31.6396080  71.2361560
  17.5437410  32.1429680  70.4722380  18.2072840  30.8417830  70.8703690
  16.7162240  48.9071740  56.0229240  17.4481060  48.6231020  55.4753130
  16.9755910  48.6685020  56.9128620  15.8777030  45.0236470  56.0275570
  15.2485910  45.4921570  56.5761400  15.9924860  44.1785690  56.4621760
  24.4268600  31.0549660  71.8142030  24.3134050  31.3744270  72.7093550
  25.2438340  31.4562170  71.5179310  27.2067090  48.2021190  71.2960720
  27.9992410  47.7070420  71.0886680  27.5000240  48.8811330  71.9036330
  15.4810620  41.1640960  44.9361800  14.6495500  40.9089670  45.3358310
  16.0891600  41.2351730  45.6719720  15.4611880  45.1981050  45.1319820
  15.7639920  44.3078790  44.9530040  16.2055470  45.7551270  44.9042070
  13.8902570  36.1242850  38.7204190  13.0019270  36.4658820  38.6184070
  14.1743760  35.9243170  37.8285020  11.8535580  38.7248500  44.6043890
  12.4251690  37.9570700  44.6047530  11.8537120  39.0237260  43.6950500
  21.7115530  47.5439350  42.4589160  21.0926970  47.9996850  41.8883600
  22.5667310  47.6990810  42.0578860  13.0960450  34.1332860  46.3912820
  12.9163290  33.2358610  46.6715580  12.6940530  34.6804730  47.0659770
  16.0663960  34.7074350  39.7542570  16.1730710  35.6078080  40.0611330
  15.1556320  34.6592320  39.4637220  13.7147120  36.6293360  44.9995160
  14.3957230  36.8931730  45.6182560  13.3995170  35.7894230  45.3333170
  16.1907790  32.3159280  48.3531170  16.1926230  32.8331670  47.5477070
  15.3612100  31.8389460  48.3301100  15.8723120  34.0269240  46.3601620
  16.2139930  34.8711290  46.0655490  14.9338930  34.1752980  46.4766960
  16.6529740  43.9235260  48.3453850  17.2703740  44.5986340  48.0638300
  15.7922860  44.3323240  48.2541350  11.9462080  43.1135120  37.2260700
  11.5690060  43.6022220  36.4945600  12.2035150  43.7860400  37.8567230
  19.5551010  31.5151510  42.6846210  19.8625990  30.9598400  41.9681710
  18.6251710  31.6495970  42.5019200  21.9300850  35.8517340  36.4173490
  20.9904520  36.0131300  36.5025950  22.2484110  36.5703020  35.8709480
  17.5488410  40.1065080  42.2026060  17.1445410  39.3942330  41.7071960
  17.6351530  39.7618320  43.0914100  18.0170110  43.7932640  44.3665270
  17.7198400  43.1878110  43.6873050  18.9669930  43.8309950  44.2554630
  16.2617030  36.8808290  45.9825100  16.8131620  36.9903630  45.2078350
  16.7760540  37.2545890  46.6980330  17.1088540  43.5314330  51.0173070
  16.2117070  43.7554300  51.2646470  17.1341410  43.6549270  50.0684470
  24.1493760  40.3807450  36.9314330  24.5887040  39.5429880  36.7852150
  24.8622180  41.0136850  37.0178470  15.9359760  40.4027650  49.5930440
  15.7967530  41.2750450  49.9617840  15.0541120  40.0600460  49.4478380
  22.2589140  45.3203520  40.8995570  22.6985050  46.0627850  40.4850960
  22.1976030  45.5630090  41.8234530  17.7340110  46.3449350  51.8015590
  17.7055540  46.7492300  50.9344020  17.5705080  45.4159710  51.6387190
  27.7310900  31.6350260  35.2455370  27.4183560  31.7277090  36.1454440
  28.4923370  32.2131290  35.1952800  14.2493040  39.0010060  39.7032710
  14.1290640  39.7272150  39.0913980  13.9393930  38.2312970  39.2260620
  11.8878410  42.1725200  45.5101350  11.9658830  42.3073970  44.5657070
  12.5020090  41.4641090  45.7029470  13.1326040  43.8725390  41.9207530
  12.7254120  44.0139980  41.0661130  14.0239050  43.5885550  41.7178740
  24.9259320  48.3072640  38.2558580  24.7660460  48.0175580  39.1540410
  24.7606030  47.5312770  37.7203810  17.4047700  48.0871170  40.0330200
  17.2290180  47.1706710  39.8198000  16.5503440  48.4458460  40.2728000
  24.6285450  45.8160200  36.8156580  23.9350610  45.8137490  36.1558860
  25.3708310  45.3919520  36.3850750  24.1935380  47.4422910  40.8905070
  24.6492330  46.6612290  41.2043690  24.5327900  48.1529730  41.4346250
  11.9437930  43.2139370  48.0495810  12.1068970  42.7444730  47.2315180
  12.4090380  42.7062930  48.7144650  16.7156700  32.3445130  43.0856380
  16.2724850  33.1254670  42.7540900  17.2741690  32.6675020  43.7927320
  21.0026510  35.2113650  48.6891700  20.5405880  35.4196670  49.5011640
  20.6004620  34.3973000  48.3862370  19.8315520  31.9655830  37.9662210
  19.2069700  31.9615700  38.6915520  19.7445640  31.0986790  37.5698180
  18.7532600  32.8892460  44.9445980  19.0504930  33.7955290  44.8638000
  19.3018160  32.4011240  44.3305550  16.5070920  37.4678700  40.8137630
  16.2811840  37.2515870  41.7184250  15.7263450  37.9007160  40.4683600
  18.9470130  38.3664280  51.4797900  18.8513730  37.4259010  51.3298300
  19.7902110  38.5879350  51.0845970  14.0780670  34.7777950  49.6331680
  13.6844060  35.6253160  49.8404460  13.3899070  34.1404320  49.8240320
  20.6525720  34.8612920  52.7028420  19.9624040  34.6685120  53.3374510
  21.3958020  35.1447560  53.2352720  11.3797720  32.7006410  43.6661760
  11.0910770  33.2709270  44.3786740  12.1243480  32.2210860  44.0292990
  11.5667950  36.6426530  34.8764480  11.4842620  37.5857290  35.0179470
  11.2151010  36.5001440  33.9976830  19.3666080  35.3765560  43.9434830
  19.3702140  34.9355510  43.0939370  20.2617200  35.6982890  44.0506650
  15.2168460  35.2592050  42.9029040  14.8768510  35.7367280  43.6596090
  14.4545780  34.8057170  42.5430140  19.4286230  36.3777640  36.9341590
  19.5499050  36.3364120  37.8827410  19.0434740  37.2401790  36.7788320
  23.3914600  34.1545040  44.9505280  23.4087340  34.6053690  45.7947130
  23.1430180  33.2550680  45.1638720  18.4407730  38.6878780  36.3324890
  17.8724630  38.2397030  35.7060800  19.1496730  39.0471560  35.7990040
  13.5176910  42.5890800  50.2091620  13.1331700  41.9484470  50.8074580
  13.8289100  43.2926920  50.7786350  12.5314540  34.1811030  41.8193710
  12.2461460  33.8166700  42.6572330  12.4693400  33.4491490  41.2056850
  15.9855210  42.6836970  38.6051300  15.2117470  42.1434590  38.4450020
  16.7149840  42.1643580  38.2669060  22.2053130  33.0740290  38.5407080
  21.3917740  32.5753460  38.4652390  22.0115080  33.9138540  38.1243430
  24.9201520  37.4459940  36.8369240  25.8081140  37.7577170  36.6620580
  24.8906610  36.5732190  36.4449820  16.0292610  42.3517350  42.2430110
  16.5471280  41.5485610  42.1887000  15.5776630  42.2896490  43.0846940
  20.9162110  43.6183630  37.5157410  21.2577810  44.3625860  37.0200730
  20.0874820  43.9314750  37.8782240  13.5137150  39.3178720  49.1555810
  13.1552090  39.9832570  49.7429150  13.2191710  38.4862270  49.5268430
  16.7150270  39.7762960  52.0395360  16.4150410  39.9220140  51.1423180
  17.4861510  39.2168250  51.9468750  27.1915790  38.7571780  36.3049100
  27.1079510  39.1886000  35.4545540  27.9109980  39.2170130  36.7375920
  19.8852800  43.6997160  40.2873330  20.5723930  44.2466370  40.6680920
  19.0985220  44.2437890  40.3222940  12.0245200  39.3169980  35.7790410
  12.8940050  39.5994780  36.0626330  11.5335520  40.1305850  35.6639220
  19.1880010  40.7043190  39.8998690  19.6442790  41.5148440  40.1258880
  18.8368220  40.3866330  40.7317180  15.0891790  31.0480840  40.3721210
  14.9606420  31.0398740  41.3206130  14.2653810  31.3863930  40.0212220
  26.6100420  44.5030500  35.5707580  26.3838000  43.7860940  36.1632220
  26.2196620  44.2542940  34.7329330  12.3916450  48.5297360  36.3452040
  12.7514090  49.1286700  35.6909310  12.2508790  49.0757250  37.1187070
  12.0885720  32.8071960  49.8327910  11.3744240  33.0068880  50.4380520
  12.5080760  32.0311530  50.2042710  26.1916670  42.4202440  37.2321740
  25.9038370  42.8815130  38.0199620  26.9868840  41.9600210  37.5005960
  12.3758310  46.7952220  50.8194440  12.4849430  45.8546960  50.6789830
  11.7238870  47.0606970  50.1708170  18.4085070  45.9128560  37.1625710
  18.3995170  46.6458250  36.5470220  17.4883430  45.6660140  37.2552670
  14.0091710  41.1343450  37.9072470  13.4019660  41.8742350  37.9167770
  14.4841060  41.2242810  37.0810670  21.3944670  45.9756800  35.8250900
  21.4956650  45.7720790  34.8952880  20.4946410  45.7215080  36.0298680
  18.9170560  36.5337160  39.8074800  18.2086710  37.0023500  40.2488410
  19.2015040  35.8759170  40.4419990  22.9485990  33.2587820  41.2470590
  22.8253770  33.2773950  40.2980100  23.8970550  33.3066760  41.3668990
  20.0362780  48.4943120  40.5198570  20.2904280  48.4564510  39.5977940
  19.0875260  48.3676450  40.5126820  17.1205580  34.8422240  37.1825510
  17.9696110  35.2792390  37.1165700  16.7536850  35.1542500  38.0097570
  16.0197000  41.0954600  35.6561040  16.7860270  40.9835960  36.2186470
  16.0971690  40.3992570  35.0037810  14.7143760  38.5279670  36.3393930
  14.7947350  37.5807180  36.4511330  15.6063510  38.8586550  36.4454590
  15.5158470  48.6775060  43.4428470  16.2520950  48.1290520  43.7137040
  15.8999390  49.5431070  43.3034460  12.4003950  44.7448630  39.3169980
  11.4743730  44.9869770  39.3075390  12.8660380  45.5722890  39.1954730
  14.5216750  47.8621130  52.6314050  15.3229480  48.1833180  53.0449450
  14.0068570  47.5016710  53.3533960  18.6260780  47.8505370  35.2654040
  19.4189390  48.1394200  34.8135830  18.1065130  47.4197540  34.5866520
  27.6790950  47.0775500  36.6890780  27.3932460  46.6640640  35.8744960
  27.4810500  48.0063210  36.5691300  12.2414560  40.3494590  51.5750100
  12.7453580  39.7701870  52.1466330  11.5021980  40.6334820  52.1126470
  19.1438180  43.0708780  35.1296390  19.0388820  42.4561130  35.8557770
  18.9762400  42.5474670  34.3459400  22.3840910  42.1328810  35.7338380
  21.8351010  42.5798110  36.3781120  23.0060170  41.6278060  36.2576050
  14.2737640  38.4924180  52.4700170  14.3142980  38.1938050  53.3785400
  15.1283140  38.8931790  52.3107690  18.0516030  41.0919730  37.6303680
  18.4732450  40.9259600  38.4735070  18.1766870  40.2819960  37.1358820
  16.2143450  37.0716280  50.4374660  15.6839910  36.5807230  49.8098000
  16.8831520  37.5000480  49.9032590  20.5643670  40.1157340  34.8780780
  21.0849330  39.4006360  34.5121930  21.2112070  40.7543210  35.1781290
  16.7015750  34.0378650  50.5171950  16.6072620  33.4199400  49.7922820
  16.1213140  34.7644940  50.2901860  19.4677190  32.5951890  47.5499340
  19.0194490  32.6176150  46.7044890  18.8342390  32.1970910  48.1469640
  16.9474930  37.1652960  34.5761840  16.7463990  36.3020320  34.9375180
  16.7766980  37.0786320  33.6383440  17.7244160  47.7959230  49.2869510
  17.1865250  48.5205290  48.9678210  17.9778120  47.3189570  48.4966850
  18.9769410  35.7643750  50.8125440  19.5669100  35.4559600  51.5003260
  18.1589650  35.2923500  50.9685340  24.4263240  31.9761190  37.1048720
  24.7065530  31.1329090  37.4608140  23.6528970  32.2084300  37.6187470
  15.7457730  34.2653580  34.5639720  16.0483630  34.2721010  33.6558870
  16.4852320  33.9151440  35.0607380  18.9642660  33.2088200  35.5495920
  18.6164660  32.5312190  34.9698370  19.1655430  32.7477710  36.3639310
  21.1291700  48.1968950  37.1682520  22.0242490  48.5353920  37.1901280
  21.1609330  47.4748360  36.5406800  14.7687860  43.5696000  35.3969520
  15.2062730  44.1125670  36.0527100  15.2535590  42.7442950  35.4065860
  11.9833660  46.3585030  42.8489780  12.3136670  45.4906090  42.6168420
  12.4124660  46.5643550  43.6794740  16.5795580  44.6894040  40.5091750
  16.2791120  44.5659010  41.4095660  16.4733070  43.8302630  40.1007480
  12.4723870  47.2255620  45.5871410  12.0354860  47.4056420  46.4195560
  13.0401550  47.9830240  45.4453130  12.3048300  39.7375850  41.9460290
  11.6497140  39.4687490  41.3019990  13.1426250  39.6280330  41.4962270
  28.8563130  41.5072290  34.8725150  29.1311970  42.4151170  34.7444370
  28.6673870  41.4434820  35.8087140  25.2538740  34.5317140  36.1678780
  25.6723620  34.3448120  35.3275440  24.9474800  33.6796190  36.4781710
  13.3424230  40.1228420  46.4863630  13.7097270  40.0355820  47.3659650
  12.7735050  39.3594970  46.3870490  12.8940230  37.0337510  50.3922050
  11.9996280  37.0004270  50.7315760  13.4337780  37.2324300  51.1573300
  11.5186380  36.9474780  37.8885620  10.6150460  37.2104980  37.7137280
  12.0027000  37.2185950  37.1085580  14.0613590  36.0040320  35.7980000
  14.7705290  35.5823540  35.3127280  13.3453530  36.0715550  35.1663350
  13.7087750  32.0579650  34.8382650  14.4315880  32.5988590  35.1563870
  13.9812270  31.7843070  33.9624190  13.3979940  31.3085840  44.7405270
  14.0456130  30.7583220  44.3000430  13.8181780  31.5628990  45.5621080
  29.8356830  33.3940990  34.8798050  30.7606140  33.2622170  34.6716340
  29.8132620  33.4733810  35.8334500  13.1511940  31.4641510  47.4830590
  12.8026760  31.9205330  48.2488770  12.8199640  30.5698640  47.5653020
  14.7576310  44.6361110  51.6483780  14.7145940  44.2654020  52.5298240
  14.8887320  45.5738680  51.7885600  18.4582340  46.1920700  47.2493500
  18.2173700  46.4595260  46.3624020  19.3984980  46.3626430  47.3044360
  20.6636760  32.6553390  51.0050010  20.6025650  33.2475220  51.7545420
  21.6037140  32.5479350  50.8600270  13.8232580  30.9917710  50.7581360
  14.3715570  30.8105760  49.9947470  13.8887890  30.2011820  51.2937670
  14.5964340  47.5823360  48.7681560  14.0024660  47.4508060  49.5071600
  14.5888180  46.7461500  48.3023660  14.2276570  44.9481740  47.7189600
  13.5010630  44.3287030  47.6515550  14.2885720  45.3422350  46.8487680
  17.8321670  47.1626740  44.5039010  18.3486690  46.5514100  43.9787270
  18.4819050  47.6655520  44.9950020  20.5717170  48.0535230  45.3307990
  20.8594980  47.7989530  44.4541000  21.0840390  47.5012590  45.9213560
  21.7894180  31.7925430  45.9104500  21.0065970  32.2670930  46.1901260
  21.4957110  30.8880260  45.8017680  26.3415250  32.4948530  43.9553590
  26.7823340  32.4393630  43.1075190  26.0722840  33.4106540  44.0263770
  28.2053820  32.1263770  41.9662410  28.1442220  31.1824990  41.8193430
  28.9845850  32.2343860  42.5115870  12.5106570  48.2656130  40.9286360
  12.3428610  47.6326810  41.6268250  11.6441080  48.4715530  40.5780550
  13.1334590  32.0972910  38.4318220  13.8913950  32.2101790  37.8582250
  12.6711760  32.9342110  38.3861650  19.6748400  34.2112180  41.4220530
  18.8622910  33.8369070  41.0816410  20.1790040  33.4557260  41.7241720
  24.1773380  30.8754630  42.6603600  24.7802750  31.4474840  43.1352120
  23.4366370  31.4394070  42.4377500  27.3207980  31.2776190  37.9343880
  27.5158610  32.1759640  38.2011310  26.5337850  31.0463270  38.4276830
  14.1169270  46.9589360  38.3736500  13.5916890  47.3397390  37.6698460
  14.0413850  47.5840130  39.0946210  15.5059740  32.6236960  36.9720190
  16.0352500  31.8366760  36.8428140  16.1388060  33.3028150  37.2055720
  17.6997580  32.3612100  40.0265580  17.0700320  31.6599410  40.1935710
  17.1602720  33.1216230  39.8098740  17.8253140  31.6396080  52.4618070
  17.5437410  32.1429680  51.6978890  18.2072840  30.8417830  52.0960200
  16.7162240  48.9071740  37.2485750  17.4481060  48.6231020  36.7009640
  16.9755910  48.6685020  38.1385130  15.8777030  45.0236470  37.2532080
  15.2485910  45.4921570  37.8017910  15.9924860  44.1785690  37.6878270
  23.3326750  39.0742130  23.4033280  23.2520800  38.1596740  23.1324990
  22.9191170  39.5709200  22.6972990  21.4644790  40.8521150  25.2842550
  20.6886890  40.3721590  25.5741120  22.1157720  40.1726800  25.1098710
  15.4810620  41.1640960  26.1618310  14.6495500  40.9089670  26.5614820
  16.0891600  41.2351730  26.8976230  25.4852220  45.2581340  24.0641680
  25.0233750  44.4868580  24.3928850  26.2977770  45.2847410  24.5694130
  15.4611880  45.1981050  26.3576330  15.7639920  44.3078790  26.1786550
  16.2055470  45.7551270  26.1298580  13.8902570  36.1242850  19.9460700
  13.0019270  36.4658820  19.8440580  14.1743760  35.9243170  19.0541530
  11.8535580  38.7248500  25.8300400  12.4251690  37.9570700  25.8304040
  11.8537120  39.0237260  24.9207010  21.7115530  47.5439350  23.6845670
  21.0926970  47.9996850  23.1140110  22.5667310  47.6990810  23.2835370
  20.9053780  43.5278340  25.2912710  20.8362060  42.5868280  25.1301840
  21.6673640  43.6179750  25.8635280  13.0960450  34.1332860  27.6169330
  12.9163290  33.2358610  27.8972090  12.6940530  34.6804730  28.2916280
  21.9358950  36.3348720  25.5181640  22.3123770  35.4620600  25.4055310
  21.8378460  36.6707420  24.6272080  16.0663960  34.7074350  20.9799080
  16.1730710  35.6078080  21.2867840  15.1556320  34.6592320  20.6893730
  25.7183070  33.8299160  22.4509980  26.5392690  33.3395730  22.4935460
  25.7517150  34.4196820  23.2041820  13.7147120  36.6293360  26.2251670
  14.3957230  36.8931730  26.8439070  13.3995170  35.7894230  26.5589680
  17.9071690  37.6760720  25.3124260  18.4149910  38.1741690  25.9529280
  18.4384930  36.8995920  25.1363620  30.0082620  35.8465910  29.0153610
  29.3034790  36.2347620  28.4968720  30.2740540  36.5416200  29.6174540
  16.1907790  32.3159280  29.5787680  16.1926230  32.8331670  28.7733580
  15.3612100  31.8389460  29.5557610  22.5778880  42.4278590  21.0777580
  21.9596150  42.8928040  20.5140300  23.0902130  43.1206070  21.4947090
  17.4410640  41.9554460  27.7561180  17.1080020  42.5823380  28.3982250
  17.6177320  42.4816340  26.9762850  25.9544550  35.7699540  25.2237520
  25.2500120  36.0584430  25.8040630  26.3156710  36.5799650  24.8637080
  15.8723120  34.0269240  27.5858130  16.2139930  34.8711290  27.2912000
  14.9338930  34.1752980  27.7023470  16.6529740  43.9235260  29.5710360
  17.2703740  44.5986340  29.2894810  15.7922860  44.3323240  29.4797860
  11.9462080  43.1135120  18.4517210  11.5690060  43.6022220  17.7202110
  12.2035150  43.7860400  19.0823740  29.0231470  35.2154330  25.6146730
  28.0756380  35.2493310  25.7462160  29.3481460  36.0293280  25.9996090
  19.5551010  31.5151510  23.9102720  19.8625990  30.9598400  23.1938220
  18.6251710  31.6495970  23.7275710  25.1066070  47.2318800  26.2010180
  25.1193230  46.8281090  25.3332440  24.5541290  48.0066090  26.0971610
  26.4011490  43.9535020  21.2900350  26.2907820  43.0109350  21.4149770
  26.3979740  44.3150660  22.1763110  24.5051510  42.1348640  27.5292790
  24.9220300  41.9208750  26.6946250  25.2291330  42.3921430  28.1001410
  21.9431770  39.5800340  20.6462840  21.0161050  39.5137720  20.8751310
  22.0956590  40.5180470  20.5318080  21.9300850  35.8517340  17.6430000
  20.9904520  36.0131300  17.7282460  22.2484110  36.5703020  17.0965990
  28.4513610  40.5335860  27.6209030  27.6232240  40.6028950  27.1459160
  29.0464090  41.1190170  27.1524860  25.9729060  41.1420640  21.1498090
  25.3541480  40.8040190  20.5024390  25.9553510  40.4980400  21.8577280
  25.4155620  37.3205180  28.5663900  25.0026800  38.1458890  28.8203890
  24.6831570  36.7350220  28.3740260  17.5488410  40.1065080  23.4282570
  17.1445410  39.3942330  22.9328470  17.6351530  39.7618320  24.3170610
  18.0170110  43.7932640  25.5921780  17.7198400  43.1878110  24.9129560
  18.9669930  43.8309950  25.4811140  16.2617030  36.8808290  27.2081610
  16.8131620  36.9903630  26.4334860  16.7760540  37.2545890  27.9236840
  26.1055720  47.3664510  29.2544880  25.6286280  48.1736700  29.0617490
  25.4217510  46.7142840  29.4071090  17.1088540  43.5314330  32.2429580
  16.2117070  43.7554300  32.4902980  17.1341410  43.6549270  31.2940980
  24.1493760  40.3807450  18.1570840  24.5887040  39.5429880  18.0108660
  24.8622180  41.0136850  18.2434980  15.9359760  40.4027650  30.8186950
  15.7967530  41.2750450  31.1874350  15.0541120  40.0600460  30.6734890
  22.2589140  45.3203520  22.1252080  22.6985050  46.0627850  21.7107470
  22.1976030  45.5630090  23.0491040  17.7340110  46.3449350  33.0272100
  17.7055540  46.7492300  32.1600530  17.5705080  45.4159710  32.8643700
  27.7310900  31.6350260  16.4711880  27.4183560  31.7277090  17.3710950
  28.4923370  32.2131290  16.4209310  14.2493040  39.0010060  20.9289220
  14.1290640  39.7272150  20.3170490  13.9393930  38.2312970  20.4517130
  11.8878410  42.1725200  26.7357860  11.9658830  42.3073970  25.7913580
  12.5020090  41.4641090  26.9285980  13.1326040  43.8725390  23.1464040
  12.7254120  44.0139980  22.2917640  14.0239050  43.5885550  22.9435250
  22.9504920  48.0217300  30.0531090  23.4649590  47.9325310  30.8553520
  22.1074000  48.3677000  30.3459000  24.9259320  48.3072640  19.4815090
  24.7660460  48.0175580  20.3796920  24.7606030  47.5312770  18.9460320
  17.4047700  48.0871170  21.2586710  17.2290180  47.1706710  21.0454510
  16.5503440  48.4458460  21.4984510  24.6285450  45.8160200  18.0413090
  23.9350610  45.8137490  17.3815370  25.3708310  45.3919520  17.6107260
  24.1935380  47.4422910  22.1161580  24.6492330  46.6612290  22.4300200
  24.5327900  48.1529730  22.6602760  11.9437930  43.2139370  29.2752320
  12.1068970  42.7444730  28.4571690  12.4090380  42.7062930  29.9401160
  16.7156700  32.3445130  24.3112890  16.2724850  33.1254670  23.9797410
  17.2741690  32.6675020  25.0183830  21.0026510  35.2113650  29.9148210
  20.5405880  35.4196670  30.7268150  20.6004620  34.3973000  29.6118880
  26.0031020  36.4322600  31.0444870  25.1524610  36.1328350  31.3653940
  25.8432810  36.6764610  30.1328690  23.0980730  37.9324350  33.1443660
  23.4234140  37.0988100  32.8045890  23.8861060  38.4552870  33.2921990
  19.8315520  31.9655830  19.1918720  19.2069700  31.9615700  19.9172030
  19.7445640  31.0986790  18.7954690  18.7532600  32.8892460  26.1702490
  19.0504930  33.7955290  26.0894510  19.3018160  32.4011240  25.5562060
  16.5070920  37.4678700  22.0394140  16.2811840  37.2515870  22.9440760
  15.7263450  37.9007160  21.6940110  23.7368680  37.4742070  20.6384790
  23.1377570  38.1977870  20.4548410  24.2848290  37.4118850  19.8561240
  18.9470130  38.3664280  32.7054410  18.8513730  37.4259010  32.5554810
  19.7902110  38.5879350  32.3102480  22.3433550  36.1105610  22.6688070
  22.7363120  36.4277810  21.8556760  22.7050400  35.2317490  22.7832590
  14.0780670  34.7777950  30.8588190  13.6844060  35.6253160  31.0660970
  13.3899070  34.1404320  31.0496830  20.6525720  34.8612920  33.9284930
  19.9624040  34.6685120  34.5631020  21.3958020  35.1447560  34.4609230
  11.3797720  32.7006410  24.8918270  11.0910770  33.2709270  25.6043250
  12.1243480  32.2210860  25.2549500  11.5667950  36.6426530  16.1020990
  11.4842620  37.5857290  16.2435980  11.2151010  36.5001440  15.2233340
  22.9288690  38.7011360  26.7638850  22.1969810  39.2098170  27.1128950
  22.5313030  37.8841340  26.4627630  19.3666080  35.3765560  25.1691340
  19.3702140  34.9355510  24.3195880  20.2617200  35.6982890  25.2763160
  15.2168460  35.2592050  24.1285550  14.8768510  35.7367280  24.8852600
  14.4545780  34.8057170  23.7686650  19.4286230  36.3777640  18.1598100
  19.5499050  36.3364120  19.1083920  19.0434740  37.2401790  18.0044830
  23.3914600  34.1545040  26.1761790  23.4087340  34.6053690  27.0203640
  23.1430180  33.2550680  26.3895230  18.4407730  38.6878780  17.5581400
  17.8724630  38.2397030  16.9317310  19.1496730  39.0471560  17.0246550
  26.8185350  31.5677220  32.0148170  27.1431120  30.8366880  32.5406150
  26.8541860  31.2490860  31.1129160  13.5176910  42.5890800  31.4348130
  13.1331700  41.9484470  32.0331090  13.8289100  43.2926920  32.0042860
  19.6674050  39.4367340  26.9156750  20.0344180  38.9625910  27.6618090
  19.4779110  40.3108910  27.2565090  12.5314540  34.1811030  23.0450220
  12.2461460  33.8166700  23.8828840  12.4693400  33.4491490  22.4313360
  17.4573420  38.4775980  29.2340960  17.1530490  39.3567960  29.4591320
  18.4119880  38.5375770  29.2698400  15.9855210  42.6836970  19.8307810
  15.2117470  42.1434590  19.6706530  16.7149840  42.1643580  19.4925570
  26.7443190  41.6802330  25.6234200  27.4642310  42.1757620  25.2330310
  26.5425010  41.0020220  24.9788070  22.2053130  33.0740290  19.7663590
  21.3917740  32.5753460  19.6908900  22.0115080  33.9138540  19.3499940
  22.1261990  41.7511390  31.5103200  22.0599300  40.8307060  31.2560790
  21.4967130  41.8486830  32.2247840  24.9201520  37.4459940  18.0625750
  25.8081140  37.7577170  17.8877090  24.8906610  36.5732190  17.6706330
  16.0292610  42.3517350  23.4686620  16.5471280  41.5485610  23.4143510
  15.5776630  42.2896490  24.3103450  20.9162110  43.6183630  18.7413920
  21.2577810  44.3625860  18.2457240  20.0874820  43.9314750  19.1038750
  13.5137150  39.3178720  30.3812320  13.1552090  39.9832570  30.9685660
  13.2191710  38.4862270  30.7524940  16.7150270  39.7762960  33.2651870
  16.4150410  39.9220140  32.3679690  17.4861510  39.2168250  33.1725260
  22.0578720  44.5731960  31.2607000  22.0723260  43.6412920  31.0425910
  21.3503820  44.6591720  31.8996770  27.1915790  38.7571780  17.5305610
  27.1079510  39.1886000  16.6802050  27.9109980  39.2170130  17.9632430
  28.2689930  41.2139300  30.6075580  27.5438120  41.8068080  30.4104970
  28.7965390  41.2062840  29.8088950  28.2203040  45.6114040  20.2587740
  27.5779200  44.9569660  20.5331460  27.8333700  46.0169130  19.4828410
  23.7989520  42.9399470  24.1059430  24.1513340  42.3427600  23.4460800
  22.9151850  42.6143700  24.2767680  19.8852800  43.6997160  21.5129840
  20.5723930  44.2466370  21.8937430  19.0985220  44.2437890  21.5479450
  12.0245200  39.3169980  17.0046920  12.8940050  39.5994780  17.2882840
  11.5335520  40.1305850  16.8895730  19.1880010  40.7043190  21.1255200
  19.6442790  41.5148440  21.3515390  18.8368220  40.3866330  21.9573690
  21.4912620  46.2149530  28.3547500  22.1354840  46.4208910  29.0320920
  21.8542060  45.4537930  27.9018350  15.0891790  31.0480840  21.5977720
  14.9606420  31.0398740  22.5462640  14.2653810  31.3863930  21.2468730
  22.7644700  44.2181880  27.0724950  23.4066930  43.5175040  27.1857120
  23.2894050  44.9980320  26.8921840  26.6100420  44.5030500  16.7964090
  26.3838000  43.7860940  17.3888730  26.2196620  44.2542940  15.9585840
  24.5382320  45.0176780  30.2761010  24.8738560  45.6043470  30.9538930
  23.6182660  44.8869490  30.5058800  12.3916450  48.5297360  17.5708550
  12.7514090  49.1286700  16.9165820  12.2508790  49.0757250  18.3443580
  12.0885720  32.8071960  31.0584420  11.3744240  33.0068880  31.6637030
  12.5080760  32.0311530  31.4299220  26.1916670  42.4202440  18.4578250
  25.9038370  42.8815130  19.2456130  26.9868840  41.9600210  18.7262470
  12.3758310  46.7952220  32.0450950  12.4849430  45.8546960  31.9046340
  11.7238870  47.0606970  31.3964680  20.3670900  45.0668110  33.4449070
  20.0467770  44.3477350  33.9894760  19.6929260  45.7423180  33.5185130
  18.4085070  45.9128560  18.3882220  18.3995170  46.6458250  17.7726730
  17.4883430  45.6660140  18.4809180  14.0091710  41.1343450  19.1328980
  13.4019660  41.8742350  19.1424280  14.4841060  41.2242810  18.3067180
  23.5824500  35.2994270  28.8085870  23.9505320  34.4789480  29.1365440
  22.7222700  35.3596160  29.2241520  26.9486530  34.2551210  19.6173430
  26.3199690  34.3596880  18.9031660  26.4538450  34.4747990  20.4067310
  21.3944670  45.9756800  17.0507410  21.4956650  45.7720790  16.1209390
  20.4946410  45.7215080  17.2555190  18.9170560  36.5337160  21.0331310
  18.2086710  37.0023500  21.4744920  19.2015040  35.8759170  21.6676500
  20.5426490  37.9533860  29.0323840  21.0411740  38.4279680  29.6975690
  20.6849440  37.0297380  29.2393870  22.9485990  33.2587820  22.4727100
  22.8253770  33.2773950  21.5236610  23.8970550  33.3066760  22.5925500
  20.0362780  48.4943120  21.7455080  20.2904280  48.4564510  20.8234450
  19.0875260  48.3676450  21.7383330  17.1205580  34.8422240  18.4082020
  17.9696110  35.2792390  18.3422210  16.7536850  35.1542500  19.2354080
  27.7493350  34.1701820  29.8752230  27.2466950  34.9107220  30.2146040
  28.5650010  34.5585820  29.5589020  26.0415360  39.4135000  23.3213590
  25.1005500  39.4285230  23.4961280  26.3559430  38.6270960  23.7673890
  16.0197000  41.0954600  16.8817550  16.7860270  40.9835960  17.4442980
  16.0971690  40.3992570  16.2294320  14.7143760  38.5279670  17.5650440
  14.7947350  37.5807180  17.6767840  15.6063510  38.8586550  17.6711100
  15.5158470  48.6775060  24.6684980  16.2520950  48.1290520  24.9393550
  15.8999390  49.5431070  24.5290970  12.4003950  44.7448630  20.5426490
  11.4743730  44.9869770  20.5331900  12.8660380  45.5722890  20.4211240
  14.5216750  47.8621130  33.8570560  15.3229480  48.1833180  34.2705960
  14.0068570  47.5016710  34.5790470  18.6260780  47.8505370  16.4910550
  19.4189390  48.1394200  16.0392340  18.1065130  47.4197540  15.8123030
  23.3581380  43.9701000  33.8045970  22.7519540  43.9932600  33.0641720
  23.0535490  43.2384040  34.3413220  24.7881750  47.6981290  32.4155380
  25.7403500  47.6139310  32.3655620  24.6409970  48.3623000  33.0889170
  27.6790950  47.0775500  17.9147290  27.3932460  46.6640640  17.1001470
  27.4810500  48.0063210  17.7947810  12.2414560  40.3494590  32.8006610
  12.7453580  39.7701870  33.3722840  11.5021980  40.6334820  33.3382980
  19.1438180  43.0708780  16.3552900  19.0388820  42.4561130  17.0814280
  18.9762400  42.5474670  15.5715910  19.2952500  41.7565580  32.3342130
  18.5298170  42.3250580  32.2496800  19.4768460  41.4641790  31.4410360
  22.3840910  42.1328810  16.9594890  21.8351010  42.5798110  17.6037630
  23.0060170  41.6278060  17.4832560  26.4375850  43.4870910  32.8917150
  27.1785320  43.8246670  32.3884610  25.6748530  43.6562970  32.3386920
  14.2737640  38.4924180  33.6956680  14.3142980  38.1938050  34.6041910
  15.1283140  38.8931790  33.5364200  18.0516030  41.0919730  18.8560190
  18.4732450  40.9259600  19.6991580  18.1766870  40.2819960  18.3615330
  16.2143450  37.0716280  31.6631170  15.6839910  36.5807230  31.0354510
  16.8831520  37.5000480  31.1289100  20.5643670  40.1157340  16.1037290
  21.0849330  39.4006360  15.7378440  21.2112070  40.7543210  16.4037800
  25.1121510  41.5385740  31.4272360  25.5262530  41.6930820  32.2762780
  24.1772510  41.6640960  31.5898140  25.5843680  38.8781900  33.4311510
  26.1664450  38.1234220  33.3431990  25.7605450  39.4089340  32.6542990
  16.7015750  34.0378650  31.7428460  16.6072620  33.4199400  31.0179330
  16.1213140  34.7644940  31.5158370  19.4677190  32.5951890  28.7755850
  19.0194490  32.6176150  27.9301400  18.8342390  32.1970910  29.3726150
  19.8736740  41.4906220  29.3968290  20.2924850  42.3338950  29.2244530
  18.9545370  41.6278260  29.1675070  22.2100640  39.2222400  30.7806130
  22.3296850  38.6263540  31.5200970  23.0694640  39.2592090  30.3607430
  24.5488540  39.7759590  29.3568640  24.0223760  40.3002210  28.7533780
  24.8919880  40.4086980  29.9878370  16.9474930  37.1652960  15.8018350
  16.7463990  36.3020320  16.1631690  16.7766980  37.0786320  14.8639950
  17.7244160  47.7959230  30.5126020  17.1865250  48.5205290  30.1934720
  17.9778120  47.3189570  29.7223360  18.9769410  35.7643750  32.0381950
  19.5669100  35.4559600  32.7259770  18.1589650  35.2923500  32.1941850
  23.7962840  35.3809560  32.2714970  23.1078360  34.7191100  32.2064960
  24.5168860  34.9347830  32.7163430  24.4263240  31.9761190  18.3305230
  24.7065530  31.1329090  18.6864650  23.6528970  32.2084300  18.8443980
  15.7457730  34.2653580  15.7896230  16.0483630  34.2721010  14.8815380
  16.4852320  33.9151440  16.2863890  20.5806370  49.0310440  30.7712670
  20.5065070  49.9345580  31.0785040  19.6785210  48.7122340  30.7434740
  18.9642660  33.2088200  16.7752430  18.6164660  32.5312190  16.1954880
  19.1655430  32.7477710  17.5895820  21.1291700  48.1968950  18.3939030
  22.0242490  48.5353920  18.4157790  21.1609330  47.4748360  17.7663310
  14.7687860  43.5696000  16.6226030  15.2062730  44.1125670  17.2783610
  15.2535590  42.7442950  16.6322370  11.9833660  46.3585030  24.0746290
  12.3136670  45.4906090  23.8424930  12.4124660  46.5643550  24.9051250
  16.5795580  44.6894040  21.7348260  16.2791120  44.5659010  22.6352170
  16.4733070  43.8302630  21.3263990  12.4723870  47.2255620  26.8127920
  12.0354860  47.4056420  27.6452070  13.0401550  47.9830240  26.6709640
  29.3487500  44.4690440  16.4374940  28.5180460  44.5367090  16.9082170
  29.5259330  45.3594560  16.1341800  28.8043960  41.2137920  18.9409140
  29.5662870  41.7834570  19.0468830  28.8198330  40.6465120  19.7117450
  12.3048300  39.7375850  23.1716800  11.6497140  39.4687490  22.5276500
  13.1426250  39.6280330  22.7218780  29.8103930  42.0688020  23.7851070
  30.1812760  41.2855340  23.3787040  30.4505860  42.7577120  23.6068370
  26.7937690  43.4524600  29.1981390  25.9797530  43.8821760  29.4607180
  27.2011890  44.0643010  28.5850440  28.8563130  41.5072290  16.0981660
  29.1311970  42.4151170  15.9700880  28.6673870  41.4434820  17.0343650
  25.2538740  34.5317140  17.3935290  25.6723620  34.3448120  16.5531950
  24.9474800  33.6796190  17.7038220  28.7528470  39.4441280  21.0911090
  28.3772070  38.6769210  20.6592380  28.0231590  39.8263980  21.5786020
  13.3424230  40.1228420  27.7120140  13.7097270  40.0355820  28.5916160
  12.7735050  39.3594970  27.6127000  28.1428090  38.5912800  30.7250610
  27.9114180  38.3625550  29.8248560  28.4032640  39.5112350  30.6795500
  12.8940230  37.0337510  31.6178560  11.9996280  37.0004270  31.9572270
  13.4337780  37.2324300  32.3829810  26.5816160  33.8169230  33.5030310
  27.4586340  33.8252630  33.8864310  26.5937000  33.0800070  32.8922660
  11.5186380  36.9474780  19.1142130  10.6150460  37.2104980  18.9393790
  12.0027000  37.2185950  18.3342090  28.0279430  37.6698770  24.3918330
  28.5516910  37.1761420  23.7608500  28.6138850  37.8049130  25.1365900
  28.2069150  37.7538640  27.9137880  27.2571860  37.7202180  28.0282870
  28.3882160  38.6638750  27.6787650  14.0613590  36.0040320  17.0236510
  14.7705290  35.5823540  16.5383790  13.3453530  36.0715550  16.3919860
  13.7087750  32.0579650  16.0639160  14.4315880  32.5988590  16.3820380
  13.9812270  31.7843070  15.1880700  27.5179400  36.9272120  20.3310740
  28.0138520  36.6942990  21.1159620  27.3195470  36.0883960  19.9148380
  13.3979940  31.3085840  25.9661780  14.0456130  30.7583220  25.5256940
  13.8181780  31.5628990  26.7877590  28.9466560  35.5633070  22.8648420
  28.8365840  35.4089110  23.8030690  29.7074150  35.0354010  22.6223830
  27.2932280  31.5027200  29.3231420  27.9304500  32.1161340  29.6890610
  27.4407170  31.5387860  28.3780650  29.8356830  33.3940990  16.1054560
  30.7606140  33.2622170  15.8972850  29.8132620  33.4733810  17.0591010
  29.9095320  34.1651650  18.7311270  29.1146820  34.0996770  19.2604180
  30.1138600  35.1002290  18.7196620  26.8513740  48.2043200  22.7249660
  27.4472810  47.8827770  22.0484080  27.1091890  47.7315020  23.5162930
  13.1511940  31.4641510  28.7087100  12.8026760  31.9205330  29.4745280
  12.8199640  30.5698640  28.7909530  14.7576310  44.6361110  32.8740290
  14.7145940  44.2654020  33.7554750  14.8887320  45.5738680  33.0142110
  18.4582340  46.1920700  28.4750010  18.2173700  46.4595260  27.5880530
  19.3984980  46.3626430  28.5300870  20.6636760  32.6553390  32.2306520
  20.6025650  33.2475220  32.9801930  21.6037140  32.5479350  32.0856780
  23.3011320  32.3123450  31.8698810  23.9151730  32.6302740  31.2079890
  23.8460880  31.8272040  32.4894670  13.8232580  30.9917710  31.9837870
  14.3715570  30.8105760  31.2203980  13.8887890  30.2011820  32.5194180
  14.5964340  47.5823360  29.9938070  14.0024660  47.4508060  30.7328110
  14.5888180  46.7461500  29.5280170  24.0419360  30.8755590  28.1968100
  23.1679200  31.2090700  27.9941030  23.9330110  30.4028770  29.0219970
  24.9491340  33.0826460  29.5809820  24.6204700  32.2678220  29.2011550
  25.8973640  33.0396270  29.4575510  14.2276570  44.9481740  28.9446110
  13.5010630  44.3287030  28.8772060  14.2885720  45.3422350  28.0744190
  17.8321670  47.1626740  25.7295520  18.3486690  46.5514100  25.2043780
  18.4819050  47.6655520  26.2206530  20.5717170  48.0535230  26.5564500
  20.8594980  47.7989530  25.6797510  21.0840390  47.5012590  27.1470070
  21.7894180  31.7925430  27.1361010  21.0065970  32.2670930  27.4157770
  21.4957110  30.8880260  27.0274190  26.3415250  32.4948530  25.1810100
  26.7823340  32.4393630  24.3331700  26.0722840  33.4106540  25.2520280
  28.2053820  32.1263770  23.1918920  28.1442220  31.1824990  23.0449940
  28.9845850  32.2343860  23.7372380  12.5106570  48.2656130  22.1542870
  12.3428610  47.6326810  22.8524760  11.6441080  48.4715530  21.8037060
  13.1334590  32.0972910  19.6574730  13.8913950  32.2101790  19.0838760
  12.6711760  32.9342110  19.6118160  19.6748400  34.2112180  22.6477040
  18.8622910  33.8369070  22.3072920  20.1790040  33.4557260  22.9498230
  24.1773380  30.8754630  23.8860110  24.7802750  31.4474840  24.3608630
  23.4366370  31.4394070  23.6634010  27.3207980  31.2776190  19.1600390
  27.5158610  32.1759640  19.4267820  26.5337850  31.0463270  19.6533340
  14.1169270  46.9589360  19.5993010  13.5916890  47.3397390  18.8954970
  14.0413850  47.5840130  20.3202720  15.5059740  32.6236960  18.1976700
  16.0352500  31.8366760  18.0684650  16.1388060  33.3028150  18.4312230
  17.6997580  32.3612100  21.2522090  17.0700320  31.6599410  21.4192220
  17.1602720  33.1216230  21.0355250  20.6389530  48.9751330  33.9232700
  21.5656840  48.7395600  33.9668660  20.6239960  49.8023330  33.4418730
  28.8734590  48.5176900  20.9206950  29.0486780  47.8314640  20.2767870
  28.1756160  49.0423950  20.5283620  17.8253140  31.6396080  33.6874580
  17.5437410  32.1429680  32.9235400  18.2072840  30.8417830  33.3216710
  16.7162240  48.9071740  18.4742260  17.4481060  48.6231020  17.9266150
  16.9755910  48.6685020  19.3641640  15.8777030  45.0236470  18.4788590
  15.2485910  45.4921570  19.0274420  15.9924860  44.1785690  18.9134780
  24.4268600  31.0549660  34.2655050  24.3134050  31.3744270  35.1606570
  25.2438340  31.4562170  33.9692330  23.3326750  39.0742130   4.6289790
  23.2520800  38.1596740   4.3581500  22.9191170  39.5709200   3.9229500
  21.4644790  40.8521150   6.5099060  20.6886890  40.3721590   6.7997630
  22.1157720  40.1726800   6.3355220  15.4810620  41.1640960   7.3874820
  14.6495500  40.9089670   7.7871330  16.0891600  41.2351730   8.1232740
  25.4852220  45.2581340   5.2898190  25.0233750  44.4868580   5.6185360
  26.2977770  45.2847410   5.7950640  15.4611880  45.1981050   7.5832840
  15.7639920  44.3078790   7.4043060  16.2055470  45.7551270   7.3555090
  11.8535580  38.7248500   7.0556910  12.4251690  37.9570700   7.0560550
  11.8537120  39.0237260   6.1463520  21.7115530  47.5439350   4.9102180
  21.0926970  47.9996850   4.3396620  22.5667310  47.6990810   4.5091880
  20.9053780  43.5278340   6.5169220  20.8362060  42.5868280   6.3558350
  21.6673640  43.6179750   7.0891790  13.0960450  34.1332860   8.8425840
  12.9163290  33.2358610   9.1228600  12.6940530  34.6804730   9.5172790
  21.9358950  36.3348720   6.7438150  22.3123770  35.4620600   6.6311820
  21.8378460  36.6707420   5.8528590  16.0663960  34.7074350   2.2055590
  16.1730710  35.6078080   2.5124350  15.1556320  34.6592320   1.9150240
  25.7183070  33.8299160   3.6766490  26.5392690  33.3395730   3.7191970
  25.7517150  34.4196820   4.4298330  13.7147120  36.6293360   7.4508180
  14.3957230  36.8931730   8.0695580  13.3995170  35.7894230   7.7846190
  17.9071690  37.6760720   6.5380770  18.4149910  38.1741690   7.1785790
  18.4384930  36.8995920   6.3620130  30.0082620  35.8465910  10.2410120
  29.3034790  36.2347620   9.7225230  30.2740540  36.5416200  10.8431050
  16.1907790  32.3159280  10.8044190  16.1926230  32.8331670   9.9990090
  15.3612100  31.8389460  10.7814120  22.5778880  42.4278590   2.3034090
  21.9596150  42.8928040   1.7396810  23.0902130  43.1206070   2.7203600
  17.4410640  41.9554460   8.9817690  17.1080020  42.5823380   9.6238760
  17.6177320  42.4816340   8.2019360  25.9544550  35.7699540   6.4494030
  25.2500120  36.0584430   7.0297140  26.3156710  36.5799650   6.0893590
  15.8723120  34.0269240   8.8114640  16.2139930  34.8711290   8.5168510
  14.9338930  34.1752980   8.9279980  16.6529740  43.9235260  10.7966870
  17.2703740  44.5986340  10.5151320  15.7922860  44.3323240  10.7054370
  27.5707330  45.3874670   8.7121510  26.8870850  46.0573780   8.7038180
  28.1101620  45.5855320   7.9466370  29.0231470  35.2154330   6.8403240
  28.0756380  35.2493310   6.9718670  29.3481460  36.0293280   7.2252600
  19.5551010  31.5151510   5.1359230  19.8625990  30.9598400   4.4194730
  18.6251710  31.6495970   4.9532220  25.1066070  47.2318800   7.4266690
  25.1193230  46.8281090   6.5588950  24.5541290  48.0066090   7.3228120
  26.4011490  43.9535020   2.5156860  26.2907820  43.0109350   2.6406280
  26.3979740  44.3150660   3.4019620  24.5051510  42.1348640   8.7549300
  24.9220300  41.9208750   7.9202760  25.2291330  42.3921430   9.3257920
  21.9431770  39.5800340   1.8719350  21.0161050  39.5137720   2.1007820
  22.0956590  40.5180470   1.7574590  28.4513610  40.5335860   8.8465540
  27.6232240  40.6028950   8.3715670  29.0464090  41.1190170   8.3781370
  25.9729060  41.1420640   2.3754600  25.3541480  40.8040190   1.7280900
  25.9553510  40.4980400   3.0833790  25.4155620  37.3205180   9.7920410
  25.0026800  38.1458890  10.0460400  24.6831570  36.7350220   9.5996770
  17.5488410  40.1065080   4.6539080  17.1445410  39.3942330   4.1584980
  17.6351530  39.7618320   5.5427120  18.0170110  43.7932640   6.8178290
  17.7198400  43.1878110   6.1386070  18.9669930  43.8309950   6.7067650
  16.2617030  36.8808290   8.4338120  16.8131620  36.9903630   7.6591370
  16.7760540  37.2545890   9.1493350  26.1055720  47.3664510  10.4801390
  25.6286280  48.1736700  10.2874000  25.4217510  46.7142840  10.6327600
  17.1088540  43.5314330  13.4686090  16.2117070  43.7554300  13.7159490
  17.1341410  43.6549270  12.5197490  15.9359760  40.4027650  12.0443460
  15.7967530  41.2750450  12.4130860  15.0541120  40.0600460  11.8991400
  22.2589140  45.3203520   3.3508590  22.6985050  46.0627850   2.9363980
  22.1976030  45.5630090   4.2747550  17.7340110  46.3449350  14.2528610
  17.7055540  46.7492300  13.3857040  17.5705080  45.4159710  14.0900210
  14.2493040  39.0010060   2.1545730  14.1290640  39.7272150   1.5427000
  13.9393930  38.2312970   1.6773640  29.6854930  47.1276450  15.5492780
  30.1614650  47.6059340  16.2281860  30.3062090  47.0593940  14.8238280
  11.8878410  42.1725200   7.9614370  11.9658830  42.3073970   7.0170090
  12.5020090  41.4641090   8.1542490  13.1326040  43.8725390   4.3720550
  12.7254120  44.0139980   3.5174150  14.0239050  43.5885550   4.1691760
  29.0888180  44.3189300  12.7092790  29.2151240  44.0801180  11.7909970
  29.1309560  43.4873840  13.1814870  22.9504920  48.0217300  11.2787600
  23.4649590  47.9325310  12.0810030  22.1074000  48.3677000  11.5715510
  17.4047700  48.0871170   2.4843220  17.2290180  47.1706710   2.2711020
  16.5503440  48.4458460   2.7241020  24.1935380  47.4422910   3.3418090
  24.6492330  46.6612290   3.6556710  24.5327900  48.1529730   3.8859270
  28.9412190  36.3721760  13.6742530  28.3256460  36.8801430  13.1457990
  28.6208610  35.4720090  13.6168470  11.9437930  43.2139370  10.5008830
  12.1068970  42.7444730   9.6828200  12.4090380  42.7062930  11.1657670
  16.7156700  32.3445130   5.5369400  16.2724850  33.1254670   5.2053920
  17.2741690  32.6675020   6.2440340  21.0026510  35.2113650  11.1404720
  20.5405880  35.4196670  11.9524660  20.6004620  34.3973000  10.8375390
  26.0031020  36.4322600  12.2701380  25.1524610  36.1328350  12.5910450
  25.8432810  36.6764610  11.3585200  23.0980730  37.9324350  14.3700170
  23.4234140  37.0988100  14.0302400  23.8861060  38.4552870  14.5178500
  18.7532600  32.8892460   7.3959000  19.0504930  33.7955290   7.3151020
  19.3018160  32.4011240   6.7818570  16.5070920  37.4678700   3.2650650
  16.2811840  37.2515870   4.1697270  15.7263450  37.9007160   2.9196620
  18.9470130  38.3664280  13.9310920  18.8513730  37.4259010  13.7811320
  19.7902110  38.5879350  13.5358990  22.3433550  36.1105610   3.8944580
  22.7363120  36.4277810   3.0813270  22.7050400  35.2317490   4.0089100
  14.0780670  34.7777950  12.0844700  13.6844060  35.6253160  12.2917480
  13.3899070  34.1404320  12.2753340  20.6525720  34.8612920  15.1541440
  19.9624040  34.6685120  15.7887530  21.3958020  35.1447560  15.6865740
  11.3797720  32.7006410   6.1174780  11.0910770  33.2709270   6.8299760
  12.1243480  32.2210860   6.4806010  22.9288690  38.7011360   7.9895360
  22.1969810  39.2098170   8.3385460  22.5313030  37.8841340   7.6884140
  19.3666080  35.3765560   6.3947850  19.3702140  34.9355510   5.5452390
  20.2617200  35.6982890   6.5019670  15.2168460  35.2592050   5.3542060
  14.8768510  35.7367280   6.1109110  14.4545780  34.8057170   4.9943160
  23.3914600  34.1545040   7.4018300  23.4087340  34.6053690   8.2460150
  23.1430180  33.2550680   7.6151740  26.8185350  31.5677220  13.2404680
  27.1431120  30.8366880  13.7662660  26.8541860  31.2490860  12.3385670
  13.5176910  42.5890800  12.6604640  13.1331700  41.9484470  13.2587600
  13.8289100  43.2926920  13.2299370  19.6674050  39.4367340   8.1413260
  20.0344180  38.9625910   8.8874600  19.4779110  40.3108910   8.4821600
  12.5314540  34.1811030   4.2706730  12.2461460  33.8166700   5.1085350
  12.4693400  33.4491490   3.6569870  17.4573420  38.4775980  10.4597470
  17.1530490  39.3567960  10.6847830  18.4119880  38.5375770  10.4954910
  26.7443190  41.6802330   6.8490710  27.4642310  42.1757620   6.4586820
  26.5425010  41.0020220   6.2044580  22.1261990  41.7511390  12.7359710
  22.0599300  40.8307060  12.4817300  21.4967130  41.8486830  13.4504350
  16.0292610  42.3517350   4.6943130  16.5471280  41.5485610   4.6400020
  15.5776630  42.2896490   5.5359960  13.5137150  39.3178720  11.6068830
  13.1552090  39.9832570  12.1942170  13.2191710  38.4862270  11.9781450
  16.7150270  39.7762960  14.4908380  16.4150410  39.9220140  13.5936200
  17.4861510  39.2168250  14.3981770  22.0578720  44.5731960  12.4863510
  22.0723260  43.6412920  12.2682420  21.3503820  44.6591720  13.1253280
  28.2689930  41.2139300  11.8332090  27.5438120  41.8068080  11.6361480
  28.7965390  41.2062840  11.0345460  23.7989520  42.9399470   5.3315940
  24.1513340  42.3427600   4.6717310  22.9151850  42.6143700   5.5024190
  19.8852800  43.6997160   2.7386350  20.5723930  44.2466370   3.1193940
  19.0985220  44.2437890   2.7735960  19.1880010  40.7043190   2.3511710
  19.6442790  41.5148440   2.5771900  18.8368220  40.3866330   3.1830200
  21.4912620  46.2149530   9.5804010  22.1354840  46.4208910  10.2577430
  21.8542060  45.4537930   9.1274860  15.0891790  31.0480840   2.8234230
  14.9606420  31.0398740   3.7719150  14.2653810  31.3863930   2.4725240
  22.7644700  44.2181880   8.2981460  23.4066930  43.5175040   8.4113630
  23.2894050  44.9980320   8.1178350  24.5382320  45.0176780  11.5017520
  24.8738560  45.6043470  12.1795440  23.6182660  44.8869490  11.7315310
  12.0885720  32.8071960  12.2840930  11.3744240  33.0068880  12.8893540
  12.5080760  32.0311530  12.6555730  12.3758310  46.7952220  13.2707460
  12.4849430  45.8546960  13.1302850  11.7238870  47.0606970  12.6221190
  20.3670900  45.0668110  14.6705580  20.0467770  44.3477350  15.2151270
  19.6929260  45.7423180  14.7441640  23.5824500  35.2994270  10.0342380
  23.9505320  34.4789480  10.3621950  22.7222700  35.3596160  10.4498030
  18.9170560  36.5337160   2.2587820  18.2086710  37.0023500   2.7001430
  19.2015040  35.8759170   2.8933010  20.5426490  37.9533860  10.2580350
  21.0411740  38.4279680  10.9232200  20.6849440  37.0297380  10.4650380
  22.9485990  33.2587820   3.6983610  22.8253770  33.2773950   2.7493120
  23.8970550  33.3066760   3.8182010  20.0362780  48.4943120   2.9711590
  20.2904280  48.4564510   2.0490960  19.0875260  48.3676450   2.9639840
  27.7493350  34.1701820  11.1008740  27.2466950  34.9107220  11.4402550
  28.5650010  34.5585820  10.7845530  26.0415360  39.4135000   4.5470100
  25.1005500  39.4285230   4.7217790  26.3559430  38.6270960   4.9930400
  28.0440940  46.5843850   6.2224360  28.1688360  47.4075020   6.6948170
  28.9106500  46.3734580   5.8748510  15.5158470  48.6775060   5.8941490
  16.2520950  48.1290520   6.1650060  15.8999390  49.5431070   5.7547480
  12.4003950  44.7448630   1.7683000  11.4743730  44.9869770   1.7588410
  12.8660380  45.5722890   1.6467750  14.5216750  47.8621130  15.0827070
  15.3229480  48.1833180  15.4962470  14.0068570  47.5016710  15.8046980
  23.3581380  43.9701000  15.0302480  22.7519540  43.9932600  14.2898230
  23.0535490  43.2384040  15.5669730  24.7881750  47.6981290  13.6411890
  25.7403500  47.6139310  13.5912130  24.6409970  48.3623000  14.3145680
  12.2414560  40.3494590  14.0263120  12.7453580  39.7701870  14.5979350
  11.5021980  40.6334820  14.5639490  19.2952500  41.7565580  13.5598640
  18.5298170  42.3250580  13.4753310  19.4768460  41.4641790  12.6666870
  26.4375850  43.4870910  14.1173660  27.1785320  43.8246670  13.6141120
  25.6748530  43.6562970  13.5643430  14.2737640  38.4924180  14.9213190
  14.3142980  38.1938050  15.8298420  15.1283140  38.8931790  14.7620710
  16.2143450  37.0716280  12.8887680  15.6839910  36.5807230  12.2611020
  16.8831520  37.5000480  12.3545610  25.1121510  41.5385740  12.6528870
  25.5262530  41.6930820  13.5019290  24.1772510  41.6640960  12.8154650
  25.5843680  38.8781900  14.6568020  26.1664450  38.1234220  14.5688500
  25.7605450  39.4089340  13.8799500  16.7015750  34.0378650  12.9684970
  16.6072620  33.4199400  12.2435840  16.1213140  34.7644940  12.7414880
  19.4677190  32.5951890  10.0012360  19.0194490  32.6176150   9.1557910
  18.8342390  32.1970910  10.5982660  19.8736740  41.4906220  10.6224800
  20.2924850  42.3338950  10.4501040  18.9545370  41.6278260  10.3931580
  22.2100640  39.2222400  12.0062640  22.3296850  38.6263540  12.7457480
  23.0694640  39.2592090  11.5863940  24.5488540  39.7759590  10.5825150
  24.0223760  40.3002210   9.9790290  24.8919880  40.4086980  11.2134880
  17.7244160  47.7959230  11.7382530  17.1865250  48.5205290  11.4191230
  17.9778120  47.3189570  10.9479870  18.9769410  35.7643750  13.2638460
  19.5669100  35.4559600  13.9516280  18.1589650  35.2923500  13.4198360
  23.7962840  35.3809560  13.4971480  23.1078360  34.7191100  13.4321470
  24.5168860  34.9347830  13.9419940  20.5806370  49.0310440  11.9969180
  20.5065070  49.9345580  12.3041550  19.6785210  48.7122340  11.9691250
  11.9833660  46.3585030   5.3002800  12.3136670  45.4906090   5.0681440
  12.4124660  46.5643550   6.1307760  16.5795580  44.6894040   2.9604770
  16.2791120  44.5659010   3.8608680  16.4733070  43.8302630   2.5520500
  12.4723870  47.2255620   8.0384430  12.0354860  47.4056420   8.8708580
  13.0401550  47.9830240   7.8966150  28.1086050  46.7272620  12.3261740
  27.5088040  46.7865180  11.5825660  28.2379950  45.7877600  12.4558590
  12.3048300  39.7375850   4.3973310  11.6497140  39.4687490   3.7533010
  13.1426250  39.6280330   3.9475290  29.8103930  42.0688020   5.0107580
  30.1812760  41.2855340   4.6043550  30.4505860  42.7577120   4.8324880
  26.7937690  43.4524600  10.4237900  25.9797530  43.8821760  10.6863690
  27.2011890  44.0643010   9.8106950  28.7528470  39.4441280   2.3167600
  28.3772070  38.6769210   1.8848890  28.0231590  39.8263980   2.8042530
  13.3424230  40.1228420   8.9376650  13.7097270  40.0355820   9.8172670
  12.7735050  39.3594970   8.8383510  28.1428090  38.5912800  11.9507120
  27.9114180  38.3625550  11.0505070  28.4032640  39.5112350  11.9052010
  12.8940230  37.0337510  12.8435070  11.9996280  37.0004270  13.1828780
  13.4337780  37.2324300  13.6086320  26.5816160  33.8169230  14.7286820
  27.4586340  33.8252630  15.1120820  26.5937000  33.0800070  14.1179170
  28.0279430  37.6698770   5.6174840  28.5516910  37.1761420   4.9865010
  28.6138850  37.8049130   6.3622410  28.2069150  37.7538640   9.1394390
  27.2571860  37.7202180   9.2539380  28.3882160  38.6638750   8.9044160
  13.3979940  31.3085840   7.1918290  14.0456130  30.7583220   6.7513450
  13.8181780  31.5628990   8.0134100  28.9466560  35.5633070   4.0904930
  28.8365840  35.4089110   5.0287200  29.7074150  35.0354010   3.8480340
  27.2932280  31.5027200  10.5487930  27.9304500  32.1161340  10.9147120
  27.4407170  31.5387860   9.6037160  26.8513740  48.2043200   3.9506170
  27.4472810  47.8827770   3.2740590  27.1091890  47.7315020   4.7419440
  13.1511940  31.4641510   9.9343610  12.8026760  31.9205330  10.7001790
  12.8199640  30.5698640  10.0166040  14.7576310  44.6361110  14.0996800
  14.7145940  44.2654020  14.9811260  14.8887320  45.5738680  14.2398620
  18.4582340  46.1920700   9.7006520  18.2173700  46.4595260   8.8137040
  19.3984980  46.3626430   9.7557380  20.6636760  32.6553390  13.4563030
  20.6025650  33.2475220  14.2058440  21.6037140  32.5479350  13.3113290
  23.3011320  32.3123450  13.0955320  23.9151730  32.6302740  12.4336400
  23.8460880  31.8272040  13.7151180  29.7186500  48.2115080  10.5017160
  29.2244780  48.6083950   9.7844290  29.1099790  47.5864290  10.8954440
  13.8232580  30.9917710  13.2094380  14.3715570  30.8105760  12.4460490
  13.8887890  30.2011820  13.7450690  14.5964340  47.5823360  11.2194580
  14.0024660  47.4508060  11.9584620  14.5888180  46.7461500  10.7536680
  24.0419360  30.8755590   9.4224610  23.1679200  31.2090700   9.2197540
  23.9330110  30.4028770  10.2476480  24.9491340  33.0826460  10.8066330
  24.6204700  32.2678220  10.4268060  25.8973640  33.0396270  10.6832020
  27.4025950  48.8538500   7.7803900  26.9428920  49.6054310   7.4061920
  26.7738410  48.1344970   7.7218700  14.2276570  44.9481740  10.1702620
  13.5010630  44.3287030  10.1028570  14.2885720  45.3422350   9.3000700
  17.8321670  47.1626740   6.9552030  18.3486690  46.5514100   6.4300290
  18.4819050  47.6655520   7.4463040  20.5717170  48.0535230   7.7821010
  20.8594980  47.7989530   6.9054020  21.0840390  47.5012590   8.3726580
  21.7894180  31.7925430   8.3617520  21.0065970  32.2670930   8.6414280
  21.4957110  30.8880260   8.2530700  26.3415250  32.4948530   6.4066610
  26.7823340  32.4393630   5.5588210  26.0722840  33.4106540   6.4776790
  28.2053820  32.1263770   4.4175430  28.1442220  31.1824990   4.2706450
  28.9845850  32.2343860   4.9628890  12.5106570  48.2656130   3.3799380
  12.3428610  47.6326810   4.0781270  11.6441080  48.4715530   3.0293570
  19.6748400  34.2112180   3.8733550  18.8622910  33.8369070   3.5329430
  20.1790040  33.4557260   4.1754740  24.1773380  30.8754630   5.1116620
  24.7802750  31.4474840   5.5865140  23.4366370  31.4394070   4.8890520
  17.6997580  32.3612100   2.4778600  17.0700320  31.6599410   2.6448730
  17.1602720  33.1216230   2.2611760  20.6389530  48.9751330  15.1489210
  21.5656840  48.7395600  15.1925170  20.6239960  49.8023330  14.6675240
  28.8734590  48.5176900   2.1463460  29.0486780  47.8314640   1.5024380
  28.1756160  49.0423950   1.7540130  17.8253140  31.6396080  14.9131090
  17.5437410  32.1429680  14.1491910  18.2072840  30.8417830  14.5473220
  24.4268600  31.0549660  15.4911560  24.3134050  31.3744270  16.3863080
  25.2438340  31.4562170  15.1948840  27.2067090  48.2021190  14.9730250
  27.9992410  47.7070420  14.7656210  27.5000240  48.8811330  15.5805860
  23.3326750  20.2998640  79.7263750  23.2520800  19.3853250  79.4555460
  22.9191170  20.7965710  79.0203460  21.4644790  22.0777660  81.6073020
  20.6886890  21.5978100  81.8971590  22.1157720  21.3983310  81.4329180
  15.4810620  22.3897470  82.4848780  14.6495500  22.1346180  82.8845290
  16.0891600  22.4608240  83.2206700  25.4852220  26.4837850  80.3872150
  25.0233750  25.7125090  80.7159320  26.2977770  26.5103920  80.8924600
  15.4611880  26.4237560  82.6806800  15.7639920  25.5335300  82.5017020
  16.2055470  26.9807780  82.4529050  13.8902570  17.3499360  76.2691170
  13.0019270  17.6915330  76.1671050  14.1743760  17.1499680  75.3772000
  11.8535580  19.9505010  82.1530870  12.4251690  19.1827210  82.1534510
  11.8537120  20.2493770  81.2437480  21.7115530  28.7695860  80.0076140
  21.0926970  29.2253360  79.4370580  22.5667310  28.9247320  79.6065840
  20.9053780  24.7534850  81.6143180  20.8362060  23.8124790  81.4532310
  21.6673640  24.8436260  82.1865750  13.0960450  15.3589370  83.9399800
  12.9163290  14.4615120  84.2202560  12.6940530  15.9061240  84.6146750
  21.9358950  17.5605230  81.8412110  22.3123770  16.6877110  81.7285780
  21.8378460  17.8963930  80.9502550  16.0663960  15.9330860  77.3029550
  16.1730710  16.8334590  77.6098310  15.1556320  15.8848830  77.0124200
  25.7183070  15.0555670  78.7740450  26.5392690  14.5652240  78.8165930
  25.7517150  15.6453330  79.5272290  13.7147120  17.8549870  82.5482140
  14.3957230  18.1188240  83.1669540  13.3995170  17.0150740  82.8820150
  17.9071690  18.9017230  81.6354730  18.4149910  19.3998200  82.2759750
  18.4384930  18.1252430  81.4594090  30.0082620  17.0722420  85.3384080
  29.3034790  17.4604130  84.8199190  30.2740540  17.7672710  85.9405010
  16.1907790  13.5415790  85.9018150  16.1926230  14.0588180  85.0964050
  15.3612100  13.0645970  85.8788080  22.5778880  23.6535100  77.4008050
  21.9596150  24.1184550  76.8370770  23.0902130  24.3462580  77.8177560
  17.4410640  23.1810970  84.0791650  17.1080020  23.8079890  84.7212720
  17.6177320  23.7072850  83.2993320  25.9544550  16.9956050  81.5467990
  25.2500120  17.2840940  82.1271100  26.3156710  17.8056160  81.1867550
  15.8723120  15.2525750  83.9088600  16.2139930  16.0967800  83.6142470
  14.9338930  15.4009490  84.0253940  16.6529740  25.1491770  85.8940830
  17.2703740  25.8242850  85.6125280  15.7922860  25.5579750  85.8028330
  11.9462080  24.3391630  74.7747680  11.5690060  24.8278730  74.0432580
  12.2035150  25.0116910  75.4054210  27.5707330  26.6131180  83.8095470
  26.8870850  27.2830290  83.8012140  28.1101620  26.8111830  83.0440330
  29.0231470  16.4410840  81.9377200  28.0756380  16.4749820  82.0692630
  29.3481460  17.2549790  82.3226560  19.5551010  12.7408020  80.2333190
  19.8625990  12.1854910  79.5168690  18.6251710  12.8752480  80.0506180
  25.1066070  28.4575310  82.5240650  25.1193230  28.0537600  81.6562910
  24.5541290  29.2322600  82.4202080  26.4011490  25.1791530  77.6130820
  26.2907820  24.2365860  77.7380240  26.3979740  25.5407170  78.4993580
  24.5051510  23.3605150  83.8523260  24.9220300  23.1465260  83.0176720
  25.2291330  23.6177940  84.4231880  21.9431770  20.8056850  76.9693310
  21.0161050  20.7394230  77.1981780  22.0956590  21.7436980  76.8548550
  21.9300850  17.0773850  73.9660470  20.9904520  17.2387810  74.0512930
  22.2484110  17.7959530  73.4196460  28.4513610  21.7592370  83.9439500
  27.6232240  21.8285460  83.4689630  29.0464090  22.3446680  83.4755330
  25.9729060  22.3677150  77.4728560  25.3541480  22.0296700  76.8254860
  25.9553510  21.7236910  78.1807750  25.4155620  18.5461690  84.8894370
  25.0026800  19.3715400  85.1434360  24.6831570  17.9606730  84.6970730
  17.5488410  21.3321590  79.7513040  17.1445410  20.6198840  79.2558940
  17.6351530  20.9874830  80.6401080  18.0170110  25.0189150  81.9152250
  17.7198400  24.4134620  81.2360030  18.9669930  25.0566460  81.8041610
  16.2617030  18.1064800  83.5312080  16.8131620  18.2160140  82.7565330
  16.7760540  18.4802400  84.2467310  26.1055720  28.5921020  85.5775350
  25.6286280  29.3993210  85.3847960  25.4217510  27.9399350  85.7301560
  24.1493760  21.6063960  74.4801310  24.5887040  20.7686390  74.3339130
  24.8622180  22.2393360  74.5665450  22.2589140  26.5460030  78.4482550
  22.6985050  27.2884360  78.0337940  22.1976030  26.7886600  79.3721510
  27.7310900  12.8606770  72.7942350  27.4183560  12.9533600  73.6941420
  28.4923370  13.4387800  72.7439780  14.2493040  20.2266570  77.2519690
  14.1290640  20.9528660  76.6400960  13.9393930  19.4569480  76.7747600
  11.8878410  23.3981710  83.0588330  11.9658830  23.5330480  82.1144050
  12.5020090  22.6897600  83.2516450  13.1326040  25.0981900  79.4694510
  12.7254120  25.2396490  78.6148110  14.0239050  24.8142060  79.2665720
  24.9259320  29.5329150  75.8045560  24.7660460  29.2432090  76.7027390
  24.7606030  28.7569280  75.2690790  17.4047700  29.3127680  77.5817180
  17.2290180  28.3963220  77.3684980  16.5503440  29.6714970  77.8214980
  24.6285450  27.0416710  74.3643560  23.9350610  27.0394000  73.7045840
  25.3708310  26.6176030  73.9337730  24.1935380  28.6679420  78.4392050
  24.6492330  27.8868800  78.7530670  24.5327900  29.3786240  78.9833230
  11.9437930  24.4395880  85.5982790  12.1068970  23.9701240  84.7802160
  12.4090380  23.9319440  86.2631630  16.7156700  13.5701640  80.6343360
  16.2724850  14.3511180  80.3027880  17.2741690  13.8931530  81.3414300
  19.8315520  13.1912340  75.5149190  19.2069700  13.1872210  76.2402500
  19.7445640  12.3243300  75.1185160  18.7532600  14.1148970  82.4932960
  19.0504930  15.0211800  82.4124980  19.3018160  13.6267750  81.8792530
  16.5070920  18.6935210  78.3624610  16.2811840  18.4772380  79.2671230
  15.7263450  19.1263670  78.0170580  23.7368680  18.6998580  76.9615260
  23.1377570  19.4234380  76.7778880  24.2848290  18.6375360  76.1791710
  22.3433550  17.3362120  78.9918540  22.7363120  17.6534320  78.1787230
  22.7050400  16.4574000  79.1063060  11.3797720  13.9262920  81.2148740
  11.0910770  14.4965780  81.9273720  12.1243480  13.4467370  81.5779970
  11.5667950  17.8683040  72.4251460  11.4842620  18.8113800  72.5666450
  11.2151010  17.7257950  71.5463810  22.9288690  19.9267870  83.0869320
  22.1969810  20.4354680  83.4359420  22.5313030  19.1097850  82.7858100
  19.3666080  16.6022070  81.4921810  19.3702140  16.1612020  80.6426350
  20.2617200  16.9239400  81.5993630  15.2168460  16.4848560  80.4516020
  14.8768510  16.9623790  81.2083070  14.4545780  16.0313680  80.0917120
  19.4286230  17.6034150  74.4828570  19.5499050  17.5620630  75.4314390
  19.0434740  18.4658300  74.3275300  23.3914600  15.3801550  82.4992260
  23.4087340  15.8310200  83.3434110  23.1430180  14.4807190  82.7125700
  18.4407730  19.9135290  73.8811870  17.8724630  19.4653540  73.2547780
  19.1496730  20.2728070  73.3477020  19.6674050  20.6623850  83.2387220
  20.0344180  20.1882420  83.9848560  19.4779110  21.5365420  83.5795560
  12.5314540  15.4067540  79.3680690  12.2461460  15.0423210  80.2059310
  12.4693400  14.6748000  78.7543830  17.4573420  19.7032490  85.5571430
  17.1530490  20.5824470  85.7821790  18.4119880  19.7632280  85.5928870
  15.9855210  23.9093480  76.1538280  15.2117470  23.3691100  75.9937000
  16.7149840  23.3900090  75.8156040  26.7443190  22.9058840  81.9464670
  27.4642310  23.4014130  81.5560780  26.5425010  22.2276730  81.3018540
  22.2053130  14.2996800  76.0894060  21.3917740  13.8009970  76.0139370
  22.0115080  15.1395050  75.6730410  24.9201520  18.6716450  74.3856220
  25.8081140  18.9833680  74.2107560  24.8906610  17.7988700  73.9936800
  16.0292610  23.5773860  79.7917090  16.5471280  22.7742120  79.7373980
  15.5776630  23.5153000  80.6333920  20.9162110  24.8440140  75.0644390
  21.2577810  25.5882370  74.5687710  20.0874820  25.1571260  75.4269220
  27.1915790  19.9828290  73.8536080  27.1079510  20.4142510  73.0032520
  27.9109980  20.4426640  74.2862900  28.2203040  26.8370550  76.5818210
  27.5779200  26.1826170  76.8561930  27.8333700  27.2425640  75.8058880
  23.7989520  24.1655980  80.4289900  24.1513340  23.5684110  79.7691270
  22.9151850  23.8400210  80.5998150  19.8852800  24.9253670  77.8360310
  20.5723930  25.4722880  78.2167900  19.0985220  25.4694400  77.8709920
  12.0245200  20.5426490  73.3277390  12.8940050  20.8251290  73.6113310
  11.5335520  21.3562360  73.2126200  19.1880010  21.9299700  77.4485670
  19.6442790  22.7404950  77.6745860  18.8368220  21.6122840  78.2804160
  21.4912620  27.4406040  84.6777970  22.1354840  27.6465420  85.3551390
  21.8542060  26.6794440  84.2248820  15.0891790  12.2737350  77.9208190
  14.9606420  12.2655250  78.8693110  14.2653810  12.6120440  77.5699200
  22.7644700  25.4438390  83.3955420  23.4066930  24.7431550  83.5087590
  23.2894050  26.2236830  83.2152310  26.6100420  25.7287010  73.1194560
  26.3838000  25.0117450  73.7119200  26.2196620  25.4799450  72.2816310
  12.3916450  29.7553870  73.8939020  12.7514090  30.3543210  73.2396290
  12.2508790  30.3013760  74.6674050  26.1916670  23.6458950  74.7808720
  25.9038370  24.1071640  75.5686600  26.9868840  23.1856720  75.0492940
  18.4085070  27.1385070  74.7112690  18.3995170  27.8714760  74.0957200
  17.4883430  26.8916650  74.8039650  14.0091710  22.3599960  75.4559450
  13.4019660  23.0998860  75.4654750  14.4841060  22.4499320  74.6297650
  23.5824500  16.5250780  85.1316340  23.9505320  15.7045990  85.4595910
  22.7222700  16.5852670  85.5471990  26.9486530  15.4807720  75.9403900
  26.3199690  15.5853390  75.2262130  26.4538450  15.7004500  76.7297780
  21.3944670  27.2013310  73.3737880  21.4956650  26.9977300  72.4439860
  20.4946410  26.9471590  73.5785660  18.9170560  17.7593670  77.3561780
  18.2086710  18.2280010  77.7975390  19.2015040  17.1015680  77.9906970
  20.5426490  19.1790370  85.3554310  21.0411740  19.6536190  86.0206160
  20.6849440  18.2553890  85.5624340  22.9485990  14.4844330  78.7957570
  22.8253770  14.5030460  77.8467080  23.8970550  14.5323270  78.9155970
  20.0362780  29.7199630  78.0685550  20.2904280  29.6821020  77.1464920
  19.0875260  29.5932960  78.0613800  17.1205580  16.0678750  74.7312490
  17.9696110  16.5048900  74.6652680  16.7536850  16.3799010  75.5584550
  26.0415360  20.6391510  79.6444060  25.1005500  20.6541740  79.8191750
  26.3559430  19.8527470  80.0904360  16.0197000  22.3211110  73.2048020
  16.7860270  22.2092470  73.7673450  16.0971690  21.6249080  72.5524790
  14.7143760  19.7536180  73.8880910  14.7947350  18.8063690  73.9998310
  15.6063510  20.0843060  73.9941570  28.0440940  27.8100360  81.3198320
  28.1688360  28.6331530  81.7922130  28.9106500  27.5991090  80.9722470
  15.5158470  29.9031570  80.9915450  16.2520950  29.3547030  81.2624020
  15.8999390  30.7687580  80.8521440  12.4003950  25.9705140  76.8656960
  11.4743730  26.2126280  76.8562370  12.8660380  26.7979400  76.7441710
  18.6260780  29.0761880  72.8141020  19.4189390  29.3650710  72.3622810
  18.1065130  28.6454050  72.1353500  27.6790950  28.3032010  74.2377760
  27.3932460  27.8897150  73.4231940  27.4810500  29.2319720  74.1178280
  19.1438180  24.2965290  72.6783370  19.0388820  23.6817640  73.4044750
  18.9762400  23.7731180  71.8946380  22.3840910  23.3585320  73.2825360
  21.8351010  23.8054620  73.9268100  23.0060170  22.8534570  73.8063030
  18.0516030  22.3176240  75.1790660  18.4732450  22.1516110  76.0222050
  18.1766870  21.5076470  74.6845800  20.5643670  21.3413850  72.4267760
  21.0849330  20.6262870  72.0608910  21.2112070  21.9799720  72.7268270
  19.4677190  13.8208400  85.0986320  19.0194490  13.8432660  84.2531870
  18.8342390  13.4227420  85.6956620  19.8736740  22.7162730  85.7198760
  20.2924850  23.5595460  85.5475000  18.9545370  22.8534770  85.4905540
  16.9474930  18.3909470  72.1248820  16.7463990  17.5276830  72.4862160
  16.7766980  18.3042830  71.1870420  24.4263240  13.2017700  74.6535700
  24.7065530  12.3585600  75.0095120  23.6528970  13.4340810  75.1674450
  15.7457730  15.4910090  72.1126700  16.0483630  15.4977520  71.2045850
  16.4852320  15.1407950  72.6094360  18.9642660  14.4344710  73.0982900
  18.6164660  13.7568700  72.5185350  19.1655430  13.9734220  73.9126290
  21.1291700  29.4225460  74.7169500  22.0242490  29.7610430  74.7388260
  21.1609330  28.7004870  74.0893780  14.7687860  24.7952510  72.9456500
  15.2062730  25.3382180  73.6014080  15.2535590  23.9699460  72.9552840
  11.9833660  27.5841540  80.3976760  12.3136670  26.7162600  80.1655400
  12.4124660  27.7900060  81.2281720  16.5795580  25.9150550  78.0578730
  16.2791120  25.7915520  78.9582640  16.4733070  25.0559140  77.6494460
  12.4723870  28.4512130  83.1358390  12.0354860  28.6312930  83.9682540
  13.0401550  29.2086750  82.9940110  29.3487500  25.6946950  72.7605410
  28.5180460  25.7623600  73.2312640  29.5259330  26.5851070  72.4572270
  28.8043960  22.4394430  75.2639610  29.5662870  23.0091080  75.3699300
  28.8198330  21.8721630  76.0347920  12.3048300  20.9632360  79.4947270
  11.6497140  20.6944000  78.8506970  13.1426250  20.8536840  79.0449250
  29.8103930  23.2944530  80.1081540  30.1812760  22.5111850  79.7017510
  30.4505860  23.9833630  79.9298840  26.7937690  24.6781110  85.5211860
  25.9797530  25.1078270  85.7837650  27.2011890  25.2899520  84.9080910
  28.8563130  22.7328800  72.4212130  29.1311970  23.6407680  72.2931350
  28.6673870  22.6691330  73.3574120  25.2538740  15.7573650  73.7165760
  25.6723620  15.5704630  72.8762420  24.9474800  14.9052700  74.0268690
  28.7528470  20.6697790  77.4141560  28.3772070  19.9025720  76.9822850
  28.0231590  21.0520490  77.9016490  13.3424230  21.3484930  84.0350610
  13.7097270  21.2612330  84.9146630  12.7735050  20.5851480  83.9357470
  11.5186380  18.1731290  75.4372600  10.6150460  18.4361490  75.2624260
  12.0027000  18.4442460  74.6572560  28.0279430  18.8955280  80.7148800
  28.5516910  18.4017930  80.0838970  28.6138850  19.0305640  81.4596370
  28.2069150  18.9795150  84.2368350  27.2571860  18.9458690  84.3513340
  28.3882160  19.8895260  84.0018120  14.0613590  17.2296830  73.3466980
  14.7705290  16.8080050  72.8614260  13.3453530  17.2972060  72.7150330
  13.7087750  13.2836160  72.3869630  14.4315880  13.8245100  72.7050850
  13.9812270  13.0099580  71.5111170  27.5179400  18.1528630  76.6541210
  28.0138520  17.9199500  77.4390090  27.3195470  17.3140470  76.2378850
  13.3979940  12.5342350  82.2892250  14.0456130  11.9839730  81.8487410
  13.8181780  12.7885500  83.1108060  28.9466560  16.7889580  79.1878890
  28.8365840  16.6345620  80.1261160  29.7074150  16.2610520  78.9454300
  27.2932280  12.7283710  85.6461890  27.9304500  13.3417850  86.0121080
  27.4407170  12.7644370  84.7011120  29.8356830  14.6197500  72.4285030
  30.7606140  14.4878680  72.2203320  29.8132620  14.6990320  73.3821480
  29.9095320  15.3908160  75.0541740  29.1146820  15.3253280  75.5834650
  30.1138600  16.3258800  75.0427090  26.8513740  29.4299710  79.0480130
  27.4472810  29.1084280  78.3714550  27.1091890  28.9571530  79.8393400
  13.1511940  12.6898020  85.0317570  12.8026760  13.1461840  85.7975750
  12.8199640  11.7955150  85.1140000  18.4582340  27.4177210  84.7980480
  18.2173700  27.6851770  83.9111000  19.3984980  27.5882940  84.8531340
  29.7186500  29.4371590  85.5991120  29.2244780  29.8340460  84.8818250
  29.1099790  28.8120800  85.9928400  24.0419360  12.1012100  84.5198570
  23.1679200  12.4347210  84.3171500  23.9330110  11.6285280  85.3450440
  24.9491340  14.3082970  85.9040290  24.6204700  13.4934730  85.5242020
  25.8973640  14.2652780  85.7805980  27.4025950  30.0795010  82.8777860
  26.9428920  30.8310820  82.5035880  26.7738410  29.3601480  82.8192660
  14.2276570  26.1738250  85.2676580  13.5010630  25.5543540  85.2002530
  14.2885720  26.5678860  84.3974660  17.8321670  28.3883250  82.0525990
  18.3486690  27.7770610  81.5274250  18.4819050  28.8912030  82.5437000
  20.5717170  29.2791740  82.8794970  20.8594980  29.0246040  82.0027980
  21.0840390  28.7269100  83.4700540  21.7894180  13.0181940  83.4591480
  21.0065970  13.4927440  83.7388240  21.4957110  12.1136770  83.3504660
  26.3415250  13.7205040  81.5040570  26.7823340  13.6650140  80.6562170
  26.0722840  14.6363050  81.5750750  28.2053820  13.3520280  79.5149390
  28.1442220  12.4081500  79.3680410  28.9845850  13.4600370  80.0602850
  12.5106570  29.4912640  78.4773340  12.3428610  28.8583320  79.1755230
  11.6441080  29.6972040  78.1267530  13.1334590  13.3229420  75.9805200
  13.8913950  13.4358300  75.4069230  12.6711760  14.1598620  75.9348630
  19.6748400  15.4368690  78.9707510  18.8622910  15.0625580  78.6303390
  20.1790040  14.6813770  79.2728700  24.1773380  12.1011140  80.2090580
  24.7802750  12.6731350  80.6839100  23.4366370  12.6650580  79.9864480
  27.3207980  12.5032700  75.4830860  27.5158610  13.4016150  75.7498290
  26.5337850  12.2719780  75.9763810  14.1169270  28.1845870  75.9223480
  13.5916890  28.5653900  75.2185440  14.0413850  28.8096640  76.6433190
  15.5059740  13.8493470  74.5207170  16.0352500  13.0623270  74.3915120
  16.1388060  14.5284660  74.7542700  17.6997580  13.5868610  77.5752560
  17.0700320  12.8855920  77.7422690  17.1602720  14.3472740  77.3585720
  28.8734590  29.7433410  77.2437420  29.0486780  29.0571150  76.5998340
  28.1756160  30.2680460  76.8514090  16.7162240  30.1328250  74.7972730
  17.4481060  29.8487530  74.2496620  16.9755910  29.8941530  75.6872110
  15.8777030  26.2492980  74.8019060  15.2485910  26.7178080  75.3504890
  15.9924860  25.4042200  75.2365250  23.3326750  20.2998640  60.9520260
  23.2520800  19.3853250  60.6811970  22.9191170  20.7965710  60.2459970
  21.4644790  22.0777660  62.8329530  20.6886890  21.5978100  63.1228100
  22.1157720  21.3983310  62.6585690  15.4810620  22.3897470  63.7105290
  14.6495500  22.1346180  64.1101800  16.0891600  22.4608240  64.4463210
  25.4852220  26.4837850  61.6128660  25.0233750  25.7125090  61.9415830
  26.2977770  26.5103920  62.1181110  15.4611880  26.4237560  63.9063310
  15.7639920  25.5335300  63.7273530  16.2055470  26.9807780  63.6785560
  13.8902570  17.3499360  57.4947680  13.0019270  17.6915330  57.3927560
  14.1743760  17.1499680  56.6028510  11.8535580  19.9505010  63.3787380
  12.4251690  19.1827210  63.3791020  11.8537120  20.2493770  62.4693990
  21.7115530  28.7695860  61.2332650  21.0926970  29.2253360  60.6627090
  22.5667310  28.9247320  60.8322350  20.9053780  24.7534850  62.8399690
  20.8362060  23.8124790  62.6788820  21.6673640  24.8436260  63.4122260
  13.0960450  15.3589370  65.1656310  12.9163290  14.4615120  65.4459070
  12.6940530  15.9061240  65.8403260  21.9358950  17.5605230  63.0668620
  22.3123770  16.6877110  62.9542290  21.8378460  17.8963930  62.1759060
  16.0663960  15.9330860  58.5286060  16.1730710  16.8334590  58.8354820
  15.1556320  15.8848830  58.2380710  25.7183070  15.0555670  59.9996960
  26.5392690  14.5652240  60.0422440  25.7517150  15.6453330  60.7528800
  13.7147120  17.8549870  63.7738650  14.3957230  18.1188240  64.3926050
  13.3995170  17.0150740  64.1076660  17.9071690  18.9017230  62.8611240
  18.4149910  19.3998200  63.5016260  18.4384930  18.1252430  62.6850600
  30.0082620  17.0722420  66.5640590  29.3034790  17.4604130  66.0455700
  30.2740540  17.7672710  67.1661520  16.1907790  13.5415790  67.1274660
  16.1926230  14.0588180  66.3220560  15.3612100  13.0645970  67.1044590
  22.5778880  23.6535100  58.6264560  21.9596150  24.1184550  58.0627280
  23.0902130  24.3462580  59.0434070  17.4410640  23.1810970  65.3048160
  17.1080020  23.8079890  65.9469230  17.6177320  23.7072850  64.5249830
  25.9544550  16.9956050  62.7724500  25.2500120  17.2840940  63.3527610
  26.3156710  17.8056160  62.4124060  15.8723120  15.2525750  65.1345110
  16.2139930  16.0967800  64.8398980  14.9338930  15.4009490  65.2510450
  16.6529740  25.1491770  67.1197340  17.2703740  25.8242850  66.8381790
  15.7922860  25.5579750  67.0284840  11.9462080  24.3391630  56.0004190
  11.5690060  24.8278730  55.2689090  12.2035150  25.0116910  56.6310720
  27.5707330  26.6131180  65.0351980  26.8870850  27.2830290  65.0268650
  28.1101620  26.8111830  64.2696840  29.0231470  16.4410840  63.1633710
  28.0756380  16.4749820  63.2949140  29.3481460  17.2549790  63.5483070
  19.5551010  12.7408020  61.4589700  19.8625990  12.1854910  60.7425200
  18.6251710  12.8752480  61.2762690  25.1066070  28.4575310  63.7497160
  25.1193230  28.0537600  62.8819420  24.5541290  29.2322600  63.6458590
  24.5051510  23.3605150  65.0779770  24.9220300  23.1465260  64.2433230
  25.2291330  23.6177940  65.6488390  21.9431770  20.8056850  58.1949820
  21.0161050  20.7394230  58.4238290  22.0956590  21.7436980  58.0805060
  21.9300850  17.0773850  55.1916980  20.9904520  17.2387810  55.2769440
  22.2484110  17.7959530  54.6452970  28.4513610  21.7592370  65.1696010
  27.6232240  21.8285460  64.6946140  29.0464090  22.3446680  64.7011840
  25.9729060  22.3677150  58.6985070  25.3541480  22.0296700  58.0511370
  25.9553510  21.7236910  59.4064260  25.4155620  18.5461690  66.1150880
  25.0026800  19.3715400  66.3690870  24.6831570  17.9606730  65.9227240
  17.5488410  21.3321590  60.9769550  17.1445410  20.6198840  60.4815450
  17.6351530  20.9874830  61.8657590  18.0170110  25.0189150  63.1408760
  17.7198400  24.4134620  62.4616540  18.9669930  25.0566460  63.0298120
  16.2617030  18.1064800  64.7568590  16.8131620  18.2160140  63.9821840
  16.7760540  18.4802400  65.4723820  26.1055720  28.5921020  66.8031860
  25.6286280  29.3993210  66.6104470  25.4217510  27.9399350  66.9558070
  17.1088540  24.7570840  69.7916560  16.2117070  24.9810810  70.0389960
  17.1341410  24.8805780  68.8427960  24.1493760  21.6063960  55.7057820
  24.5887040  20.7686390  55.5595640  24.8622180  22.2393360  55.7921960
  15.9359760  21.6284160  68.3673930  15.7967530  22.5006960  68.7361330
  15.0541120  21.2856970  68.2221870  22.2589140  26.5460030  59.6739060
  22.6985050  27.2884360  59.2594450  22.1976030  26.7886600  60.5978020
  17.7340110  27.5705860  70.5759080  17.7055540  27.9748810  69.7087510
  17.5705080  26.6416220  70.4130680  27.7310900  12.8606770  54.0198860
  27.4183560  12.9533600  54.9197930  28.4923370  13.4387800  53.9696290
  14.2493040  20.2266570  58.4776200  14.1290640  20.9528660  57.8657470
  13.9393930  19.4569480  58.0004110  29.6854930  28.3532960  71.8723250
  30.1614650  28.8315850  72.5512330  30.3062090  28.2850450  71.1468750
  11.8878410  23.3981710  64.2844840  11.9658830  23.5330480  63.3400560
  12.5020090  22.6897600  64.4772960  13.1326040  25.0981900  60.6951020
  12.7254120  25.2396490  59.8404620  14.0239050  24.8142060  60.4922230
  29.0888180  25.5445810  69.0323260  29.2151240  25.3057690  68.1140440
  29.1309560  24.7130350  69.5045340  22.9504920  29.2473810  67.6018070
  23.4649590  29.1581820  68.4040500  22.1074000  29.5933510  67.8945980
  17.4047700  29.3127680  58.8073690  17.2290180  28.3963220  58.5941490
  16.5503440  29.6714970  59.0471490  24.1935380  28.6679420  59.6648560
  24.6492330  27.8868800  59.9787180  24.5327900  29.3786240  60.2089740
  28.9412190  17.5978270  69.9973000  28.3256460  18.1057940  69.4688460
  28.6208610  16.6976600  69.9398940  11.9437930  24.4395880  66.8239300
  12.1068970  23.9701240  66.0058670  12.4090380  23.9319440  67.4888140
  16.7156700  13.5701640  61.8599870  16.2724850  14.3511180  61.5284390
  17.2741690  13.8931530  62.5670810  21.0026510  16.4370160  67.4635190
  20.5405880  16.6453180  68.2755130  20.6004620  15.6229510  67.1605860
  26.0031020  17.6579110  68.5931850  25.1524610  17.3584860  68.9140920
  25.8432810  17.9021120  67.6815670  23.0980730  19.1580860  70.6930640
  23.4234140  18.3244610  70.3532870  23.8861060  19.6809380  70.8408970
  19.8315520  13.1912340  56.7405700  19.2069700  13.1872210  57.4659010
  19.7445640  12.3243300  56.3441670  18.7532600  14.1148970  63.7189470
  19.0504930  15.0211800  63.6381490  19.3018160  13.6267750  63.1049040
  16.5070920  18.6935210  59.5881120  16.2811840  18.4772380  60.4927740
  15.7263450  19.1263670  59.2427090  23.7368680  18.6998580  58.1871770
  23.1377570  19.4234380  58.0035390  24.2848290  18.6375360  57.4048220
  18.9470130  19.5920790  70.2541390  18.8513730  18.6515520  70.1041790
  19.7902110  19.8135860  69.8589460  22.3433550  17.3362120  60.2175050
  22.7363120  17.6534320  59.4043740  22.7050400  16.4574000  60.3319570
  14.0780670  16.0034460  68.4075170  13.6844060  16.8509670  68.6147950
  13.3899070  15.3660830  68.5983810  20.6525720  16.0869430  71.4771910
  19.9624040  15.8941630  72.1118000  21.3958020  16.3704070  72.0096210
  11.3797720  13.9262920  62.4405250  11.0910770  14.4965780  63.1530230
  12.1243480  13.4467370  62.8036480  11.5667950  17.8683040  53.6507970
  11.4842620  18.8113800  53.7922960  11.2151010  17.7257950  52.7720320
  22.9288690  19.9267870  64.3125830  22.1969810  20.4354680  64.6615930
  22.5313030  19.1097850  64.0114610  19.3666080  16.6022070  62.7178320
  19.3702140  16.1612020  61.8682860  20.2617200  16.9239400  62.8250140
  15.2168460  16.4848560  61.6772530  14.8768510  16.9623790  62.4339580
  14.4545780  16.0313680  61.3173630  19.4286230  17.6034150  55.7085080
  19.5499050  17.5620630  56.6570900  19.0434740  18.4658300  55.5531810
  23.3914600  15.3801550  63.7248770  23.4087340  15.8310200  64.5690620
  23.1430180  14.4807190  63.9382210  18.4407730  19.9135290  55.1068380
  17.8724630  19.4653540  54.4804290  19.1496730  20.2728070  54.5733530
  26.8185350  12.7933730  69.5635150  27.1431120  12.0623390  70.0893130
  26.8541860  12.4747370  68.6616140  13.5176910  23.8147310  68.9835110
  13.1331700  23.1740980  69.5818070  13.8289100  24.5183430  69.5529840
  19.6674050  20.6623850  64.4643730  20.0344180  20.1882420  65.2105070
  19.4779110  21.5365420  64.8052070  12.5314540  15.4067540  60.5937200
  12.2461460  15.0423210  61.4315820  12.4693400  14.6748000  59.9800340
  17.4573420  19.7032490  66.7827940  17.1530490  20.5824470  67.0078300
  18.4119880  19.7632280  66.8185380  15.9855210  23.9093480  57.3794790
  15.2117470  23.3691100  57.2193510  16.7149840  23.3900090  57.0412550
  26.7443190  22.9058840  63.1721180  27.4642310  23.4014130  62.7817290
  26.5425010  22.2276730  62.5275050  22.2053130  14.2996800  57.3150570
  21.3917740  13.8009970  57.2395880  22.0115080  15.1395050  56.8986920
  22.1261990  22.9767900  69.0590180  22.0599300  22.0563570  68.8047770
  21.4967130  23.0743340  69.7734820  24.9201520  18.6716450  55.6112730
  25.8081140  18.9833680  55.4364070  24.8906610  17.7988700  55.2193310
  16.0292610  23.5773860  61.0173600  16.5471280  22.7742120  60.9630490
  15.5776630  23.5153000  61.8590430  20.9162110  24.8440140  56.2900900
  21.2577810  25.5882370  55.7944220  20.0874820  25.1571260  56.6525730
  13.5137150  20.5435230  67.9299300  13.1552090  21.2089080  68.5172640
  13.2191710  19.7118780  68.3011920  16.7150270  21.0019470  70.8138850
  16.4150410  21.1476650  69.9166670  17.4861510  20.4424760  70.7212240
  22.0578720  25.7988470  68.8093980  22.0723260  24.8669430  68.5912890
  21.3503820  25.8848230  69.4483750  27.1915790  19.9828290  55.0792590
  27.1079510  20.4142510  54.2289030  27.9109980  20.4426640  55.5119410
  28.2689930  22.4395810  68.1562560  27.5438120  23.0324590  67.9591950
  28.7965390  22.4319350  67.3575930  23.7989520  24.1655980  61.6546410
  24.1513340  23.5684110  60.9947780  22.9151850  23.8400210  61.8254660
  19.8852800  24.9253670  59.0616820  20.5723930  25.4722880  59.4424410
  19.0985220  25.4694400  59.0966430  12.0245200  20.5426490  54.5533900
  12.8940050  20.8251290  54.8369820  11.5335520  21.3562360  54.4382710
  19.1880010  21.9299700  58.6742180  19.6442790  22.7404950  58.9002370
  18.8368220  21.6122840  59.5060670  21.4912620  27.4406040  65.9034480
  22.1354840  27.6465420  66.5807900  21.8542060  26.6794440  65.4505330
  15.0891790  12.2737350  59.1464700  14.9606420  12.2655250  60.0949620
  14.2653810  12.6120440  58.7955710  22.7644700  25.4438390  64.6211930
  23.4066930  24.7431550  64.7344100  23.2894050  26.2236830  64.4408820
  24.5382320  26.2433290  67.8247990  24.8738560  26.8299980  68.5025910
  23.6182660  26.1126000  68.0545780  12.3916450  29.7553870  55.1195530
  12.7514090  30.3543210  54.4652800  12.2508790  30.3013760  55.8930560
  12.0885720  14.0328470  68.6071400  11.3744240  14.2325390  69.2124010
  12.5080760  13.2568040  68.9786200  12.3758310  28.0208730  69.5937930
  12.4849430  27.0803470  69.4533320  11.7238870  28.2863480  68.9451660
  20.3670900  26.2924620  70.9936050  20.0467770  25.5733860  71.5381740
  19.6929260  26.9679690  71.0672110  18.4085070  27.1385070  55.9369200
  18.3995170  27.8714760  55.3213710  17.4883430  26.8916650  56.0296160
  14.0091710  22.3599960  56.6815960  13.4019660  23.0998860  56.6911260
  14.4841060  22.4499320  55.8554160  23.5824500  16.5250780  66.3572850
  23.9505320  15.7045990  66.6852420  22.7222700  16.5852670  66.7728500
  26.9486530  15.4807720  57.1660410  26.3199690  15.5853390  56.4518640
  26.4538450  15.7004500  57.9554290  21.3944670  27.2013310  54.5994390
  21.4956650  26.9977300  53.6696370  20.4946410  26.9471590  54.8042170
  18.9170560  17.7593670  58.5818290  18.2086710  18.2280010  59.0231900
  19.2015040  17.1015680  59.2163480  20.5426490  19.1790370  66.5810820
  21.0411740  19.6536190  67.2462670  20.6849440  18.2553890  66.7880850
  22.9485990  14.4844330  60.0214080  22.8253770  14.5030460  59.0723590
  23.8970550  14.5323270  60.1412480  20.0362780  29.7199630  59.2942060
  20.2904280  29.6821020  58.3721430  19.0875260  29.5932960  59.2870310
  17.1205580  16.0678750  55.9569000  17.9696110  16.5048900  55.8909190
  16.7536850  16.3799010  56.7841060  27.7493350  15.3958330  67.4239210
  27.2466950  16.1363730  67.7633020  28.5650010  15.7842330  67.1076000
  26.0415360  20.6391510  60.8700570  25.1005500  20.6541740  61.0448260
  26.3559430  19.8527470  61.3160870  16.0197000  22.3211110  54.4304530
  16.7860270  22.2092470  54.9929960  16.0971690  21.6249080  53.7781300
  14.7143760  19.7536180  55.1137420  14.7947350  18.8063690  55.2254820
  15.6063510  20.0843060  55.2198080  15.5158470  29.9031570  62.2171960
  16.2520950  29.3547030  62.4880530  15.8999390  30.7687580  62.0777950
  12.4003950  25.9705140  58.0913470  11.4743730  26.2126280  58.0818880
  12.8660380  26.7979400  57.9698220  14.5216750  29.0877640  71.4057540
  15.3229480  29.4089690  71.8192940  14.0068570  28.7273220  72.1277450
  18.6260780  29.0761880  54.0397530  19.4189390  29.3650710  53.5879320
  18.1065130  28.6454050  53.3610010  23.3581380  25.1957510  71.3532950
  22.7519540  25.2189110  70.6128700  23.0535490  24.4640550  71.8900200
  24.7881750  28.9237800  69.9642360  25.7403500  28.8395820  69.9142600
  24.6409970  29.5879510  70.6376150  12.2414560  21.5751100  70.3493590
  12.7453580  20.9958380  70.9209820  11.5021980  21.8591330  70.8869960
  19.1438180  24.2965290  53.9039880  19.0388820  23.6817640  54.6301260
  18.9762400  23.7731180  53.1202890  19.2952500  22.9822090  69.8829110
  18.5298170  23.5507090  69.7983780  19.4768460  22.6898300  68.9897340
  22.3840910  23.3585320  54.5081870  21.8351010  23.8054620  55.1524610
  23.0060170  22.8534570  55.0319540  26.4375850  24.7127420  70.4404130
  27.1785320  25.0503180  69.9371590  25.6748530  24.8819480  69.8873900
  14.2737640  19.7180690  71.2443660  14.3142980  19.4194560  72.1528890
  15.1283140  20.1188300  71.0851180  18.0516030  22.3176240  56.4047170
  18.4732450  22.1516110  57.2478560  18.1766870  21.5076470  55.9102310
  16.2143450  18.2972790  69.2118150  15.6839910  17.8063740  68.5841490
  16.8831520  18.7256990  68.6776080  20.5643670  21.3413850  53.6524270
  21.0849330  20.6262870  53.2865420  21.2112070  21.9799720  53.9524780
  25.1121510  22.7642250  68.9759340  25.5262530  22.9187330  69.8249760
  24.1772510  22.8897470  69.1385120  25.5843680  20.1038410  70.9798490
  26.1664450  19.3490730  70.8918970  25.7605450  20.6345850  70.2029970
  16.7015750  15.2635160  69.2915440  16.6072620  14.6455910  68.5666310
  16.1213140  15.9901450  69.0645350  19.4677190  13.8208400  66.3242830
  19.0194490  13.8432660  65.4788380  18.8342390  13.4227420  66.9213130
  19.8736740  22.7162730  66.9455270  20.2924850  23.5595460  66.7731510
  18.9545370  22.8534770  66.7162050  22.2100640  20.4478910  68.3293110
  22.3296850  19.8520050  69.0687950  23.0694640  20.4848600  67.9094410
  24.5488540  21.0016100  66.9055620  24.0223760  21.5258720  66.3020760
  24.8919880  21.6343490  67.5365350  16.9474930  18.3909470  53.3505330
  16.7463990  17.5276830  53.7118670  16.7766980  18.3042830  52.4126930
  17.7244160  29.0215740  68.0613000  17.1865250  29.7461800  67.7421700
  17.9778120  28.5446080  67.2710340  18.9769410  16.9900260  69.5868930
  19.5669100  16.6816110  70.2746750  18.1589650  16.5180010  69.7428830
  23.7962840  16.6066070  69.8201950  23.1078360  15.9447610  69.7551940
  24.5168860  16.1604340  70.2650410  24.4263240  13.2017700  55.8792210
  24.7065530  12.3585600  56.2351630  23.6528970  13.4340810  56.3930960
  15.7457730  15.4910090  53.3383210  16.0483630  15.4977520  52.4302360
  16.4852320  15.1407950  53.8350870  20.5806370  30.2566950  68.3199650
  20.5065070  31.1602090  68.6272020  19.6785210  29.9378850  68.2921720
  18.9642660  14.4344710  54.3239410  18.6164660  13.7568700  53.7441860
  19.1655430  13.9734220  55.1382800  21.1291700  29.4225460  55.9426010
  22.0242490  29.7610430  55.9644770  21.1609330  28.7004870  55.3150290
  14.7687860  24.7952510  54.1713010  15.2062730  25.3382180  54.8270590
  15.2535590  23.9699460  54.1809350  11.9833660  27.5841540  61.6233270
  12.3136670  26.7162600  61.3911910  12.4124660  27.7900060  62.4538230
  16.5795580  25.9150550  59.2835240  16.2791120  25.7915520  60.1839150
  16.4733070  25.0559140  58.8750970  12.4723870  28.4512130  64.3614900
  12.0354860  28.6312930  65.1939050  13.0401550  29.2086750  64.2196620
  28.1086050  27.9529130  68.6492210  27.5088040  28.0121690  67.9056130
  28.2379950  27.0134110  68.7789060  12.3048300  20.9632360  60.7203780
  11.6497140  20.6944000  60.0763480  13.1426250  20.8536840  60.2705760
  26.7937690  24.6781110  66.7468370  25.9797530  25.1078270  67.0094160
  27.2011890  25.2899520  66.1337420  25.2538740  15.7573650  54.9422270
  25.6723620  15.5704630  54.1018930  24.9474800  14.9052700  55.2525200
  13.3424230  21.3484930  65.2607120  13.7097270  21.2612330  66.1403140
  12.7735050  20.5851480  65.1613980  28.1428090  19.8169310  68.2737590
  27.9114180  19.5882060  67.3735540  28.4032640  20.7368860  68.2282480
  12.8940230  18.2594020  69.1665540  11.9996280  18.2260780  69.5059250
  13.4337780  18.4580810  69.9316790  26.5816160  15.0425740  71.0517290
  27.4586340  15.0509140  71.4351290  26.5937000  14.3056580  70.4409640
  11.5186380  18.1731290  56.6629110  10.6150460  18.4361490  56.4880770
  12.0027000  18.4442460  55.8829070  28.0279430  18.8955280  61.9405310
  28.5516910  18.4017930  61.3095480  28.6138850  19.0305640  62.6852880
  28.2069150  18.9795150  65.4624860  27.2571860  18.9458690  65.5769850
  28.3882160  19.8895260  65.2274630  14.0613590  17.2296830  54.5723490
  14.7705290  16.8080050  54.0870770  13.3453530  17.2972060  53.9406840
  13.7087750  13.2836160  53.6126140  14.4315880  13.8245100  53.9307360
  13.9812270  13.0099580  52.7367680  27.5179400  18.1528630  57.8797720
  28.0138520  17.9199500  58.6646600  27.3195470  17.3140470  57.4635360
  13.3979940  12.5342350  63.5148760  14.0456130  11.9839730  63.0743920
  13.8181780  12.7885500  64.3364570  28.9466560  16.7889580  60.4135400
  28.8365840  16.6345620  61.3517670  29.7074150  16.2610520  60.1710810
  27.2932280  12.7283710  66.8718400  27.9304500  13.3417850  67.2377590
  27.4407170  12.7644370  65.9267630  29.8356830  14.6197500  53.6541540
  30.7606140  14.4878680  53.4459830  29.8132620  14.6990320  54.6077990
  29.9095320  15.3908160  56.2798250  29.1146820  15.3253280  56.8091160
  30.1138600  16.3258800  56.2683600  13.1511940  12.6898020  66.2574080
  12.8026760  13.1461840  67.0232260  12.8199640  11.7955150  66.3396510
  14.7576310  25.8617620  70.4227270  14.7145940  25.4910530  71.3041730
  14.8887320  26.7995190  70.5629090  18.4582340  27.4177210  66.0236990
  18.2173700  27.6851770  65.1367510  19.3984980  27.5882940  66.0787850
  20.6636760  13.8809900  69.7793500  20.6025650  14.4731730  70.5288910
  21.6037140  13.7735860  69.6343760  23.3011320  13.5379960  69.4185790
  23.9151730  13.8559250  68.7566870  23.8460880  13.0528550  70.0381650
  29.7186500  29.4371590  66.8247630  29.2244780  29.8340460  66.1074760
  29.1099790  28.8120800  67.2184910  13.8232580  12.2174220  69.5324850
  14.3715570  12.0362270  68.7690960  13.8887890  11.4268330  70.0681160
  14.5964340  28.8079870  67.5425050  14.0024660  28.6764570  68.2815090
  14.5888180  27.9718010  67.0767150  24.0419360  12.1012100  65.7455080
  23.1679200  12.4347210  65.5428010  23.9330110  11.6285280  66.5706950
  24.9491340  14.3082970  67.1296800  24.6204700  13.4934730  66.7498530
  25.8973640  14.2652780  67.0062490  14.2276570  26.1738250  66.4933090
  13.5010630  25.5543540  66.4259040  14.2885720  26.5678860  65.6231170
  17.8321670  28.3883250  63.2782500  18.3486690  27.7770610  62.7530760
  18.4819050  28.8912030  63.7693510  20.5717170  29.2791740  64.1051480
  20.8594980  29.0246040  63.2284490  21.0840390  28.7269100  64.6957050
  21.7894180  13.0181940  64.6847990  21.0065970  13.4927440  64.9644750
  21.4957110  12.1136770  64.5761170  26.3415250  13.7205040  62.7297080
  26.7823340  13.6650140  61.8818680  26.0722840  14.6363050  62.8007260
  28.2053820  13.3520280  60.7405900  28.1442220  12.4081500  60.5936920
  28.9845850  13.4600370  61.2859360  12.5106570  29.4912640  59.7029850
  12.3428610  28.8583320  60.4011740  11.6441080  29.6972040  59.3524040
  13.1334590  13.3229420  57.2061710  13.8913950  13.4358300  56.6325740
  12.6711760  14.1598620  57.1605140  19.6748400  15.4368690  60.1964020
  18.8622910  15.0625580  59.8559900  20.1790040  14.6813770  60.4985210
  24.1773380  12.1011140  61.4347090  24.7802750  12.6731350  61.9095610
  23.4366370  12.6650580  61.2120990  27.3207980  12.5032700  56.7087370
  27.5158610  13.4016150  56.9754800  26.5337850  12.2719780  57.2020320
  14.1169270  28.1845870  57.1479990  13.5916890  28.5653900  56.4441950
  14.0413850  28.8096640  57.8689700  15.5059740  13.8493470  55.7463680
  16.0352500  13.0623270  55.6171630  16.1388060  14.5284660  55.9799210
  17.6997580  13.5868610  58.8009070  17.0700320  12.8855920  58.9679200
  17.1602720  14.3472740  58.5842230  20.6389530  30.2007840  71.4719680
  21.5656840  29.9652110  71.5155640  20.6239960  31.0279840  70.9905710
  17.8253140  12.8652590  71.2361560  17.5437410  13.3686190  70.4722380
  18.2072840  12.0674340  70.8703690  16.7162240  30.1328250  56.0229240
  17.4481060  29.8487530  55.4753130  16.9755910  29.8941530  56.9128620
  15.8777030  26.2492980  56.0275570  15.2485910  26.7178080  56.5761400
  15.9924860  25.4042200  56.4621760  24.4268600  12.2806170  71.8142030
  24.3134050  12.6000780  72.7093550  25.2438340  12.6818680  71.5179310
  27.2067090  29.4277700  71.2960720  27.9992410  28.9326930  71.0886680
  27.5000240  30.1067840  71.9036330  23.3326750  20.2998640  42.1776770
  23.2520800  19.3853250  41.9068480  22.9191170  20.7965710  41.4716480
  21.4644790  22.0777660  44.0586040  20.6886890  21.5978100  44.3484610
  22.1157720  21.3983310  43.8842200  15.4810620  22.3897470  44.9361800
  14.6495500  22.1346180  45.3358310  16.0891600  22.4608240  45.6719720
  25.4852220  26.4837850  42.8385170  25.0233750  25.7125090  43.1672340
  26.2977770  26.5103920  43.3437620  15.4611880  26.4237560  45.1319820
  15.7639920  25.5335300  44.9530040  16.2055470  26.9807780  44.9042070
  13.8902570  17.3499360  38.7204190  13.0019270  17.6915330  38.6184070
  14.1743760  17.1499680  37.8285020  11.8535580  19.9505010  44.6043890
  12.4251690  19.1827210  44.6047530  11.8537120  20.2493770  43.6950500
  21.7115530  28.7695860  42.4589160  21.0926970  29.2253360  41.8883600
  22.5667310  28.9247320  42.0578860  20.9053780  24.7534850  44.0656200
  20.8362060  23.8124790  43.9045330  21.6673640  24.8436260  44.6378770
  13.0960450  15.3589370  46.3912820  12.9163290  14.4615120  46.6715580
  12.6940530  15.9061240  47.0659770  21.9358950  17.5605230  44.2925130
  22.3123770  16.6877110  44.1798800  21.8378460  17.8963930  43.4015570
  16.0663960  15.9330860  39.7542570  16.1730710  16.8334590  40.0611330
  15.1556320  15.8848830  39.4637220  25.7183070  15.0555670  41.2253470
  26.5392690  14.5652240  41.2678950  25.7517150  15.6453330  41.9785310
  13.7147120  17.8549870  44.9995160  14.3957230  18.1188240  45.6182560
  13.3995170  17.0150740  45.3333170  17.9071690  18.9017230  44.0867750
  18.4149910  19.3998200  44.7272770  18.4384930  18.1252430  43.9107110
  30.0082620  17.0722420  47.7897100  29.3034790  17.4604130  47.2712210
  30.2740540  17.7672710  48.3918030  16.1907790  13.5415790  48.3531170
  16.1926230  14.0588180  47.5477070  15.3612100  13.0645970  48.3301100
  22.5778880  23.6535100  39.8521070  21.9596150  24.1184550  39.2883790
  23.0902130  24.3462580  40.2690580  17.4410640  23.1810970  46.5304670
  17.1080020  23.8079890  47.1725740  17.6177320  23.7072850  45.7506340
  25.9544550  16.9956050  43.9981010  25.2500120  17.2840940  44.5784120
  26.3156710  17.8056160  43.6380570  15.8723120  15.2525750  46.3601620
  16.2139930  16.0967800  46.0655490  14.9338930  15.4009490  46.4766960
  16.6529740  25.1491770  48.3453850  17.2703740  25.8242850  48.0638300
  15.7922860  25.5579750  48.2541350  11.9462080  24.3391630  37.2260700
  11.5690060  24.8278730  36.4945600  12.2035150  25.0116910  37.8567230
  29.0231470  16.4410840  44.3890220  28.0756380  16.4749820  44.5205650
  29.3481460  17.2549790  44.7739580  19.5551010  12.7408020  42.6846210
  19.8625990  12.1854910  41.9681710  18.6251710  12.8752480  42.5019200
  26.4011490  25.1791530  40.0643840  26.2907820  24.2365860  40.1893260
  26.3979740  25.5407170  40.9506600  24.5051510  23.3605150  46.3036280
  24.9220300  23.1465260  45.4689740  25.2291330  23.6177940  46.8744900
  21.9431770  20.8056850  39.4206330  21.0161050  20.7394230  39.6494800
  22.0956590  21.7436980  39.3061570  21.9300850  17.0773850  36.4173490
  20.9904520  17.2387810  36.5025950  22.2484110  17.7959530  35.8709480
  28.4513610  21.7592370  46.3952520  27.6232240  21.8285460  45.9202650
  29.0464090  22.3446680  45.9268350  25.9729060  22.3677150  39.9241580
  25.3541480  22.0296700  39.2767880  25.9553510  21.7236910  40.6320770
  25.4155620  18.5461690  47.3407390  25.0026800  19.3715400  47.5947380
  24.6831570  17.9606730  47.1483750  17.5488410  21.3321590  42.2026060
  17.1445410  20.6198840  41.7071960  17.6351530  20.9874830  43.0914100
  18.0170110  25.0189150  44.3665270  17.7198400  24.4134620  43.6873050
  18.9669930  25.0566460  44.2554630  16.2617030  18.1064800  45.9825100
  16.8131620  18.2160140  45.2078350  16.7760540  18.4802400  46.6980330
  17.1088540  24.7570840  51.0173070  16.2117070  24.9810810  51.2646470
  17.1341410  24.8805780  50.0684470  24.1493760  21.6063960  36.9314330
  24.5887040  20.7686390  36.7852150  24.8622180  22.2393360  37.0178470
  15.9359760  21.6284160  49.5930440  15.7967530  22.5006960  49.9617840
  15.0541120  21.2856970  49.4478380  22.2589140  26.5460030  40.8995570
  22.6985050  27.2884360  40.4850960  22.1976030  26.7886600  41.8234530
  17.7340110  27.5705860  51.8015590  17.7055540  27.9748810  50.9344020
  17.5705080  26.6416220  51.6387190  27.7310900  12.8606770  35.2455370
  27.4183560  12.9533600  36.1454440  28.4923370  13.4387800  35.1952800
  14.2493040  20.2266570  39.7032710  14.1290640  20.9528660  39.0913980
  13.9393930  19.4569480  39.2260620  11.8878410  23.3981710  45.5101350
  11.9658830  23.5330480  44.5657070  12.5020090  22.6897600  45.7029470
  13.1326040  25.0981900  41.9207530  12.7254120  25.2396490  41.0661130
  14.0239050  24.8142060  41.7178740  24.9259320  29.5329150  38.2558580
  24.7660460  29.2432090  39.1540410  24.7606030  28.7569280  37.7203810
  17.4047700  29.3127680  40.0330200  17.2290180  28.3963220  39.8198000
  16.5503440  29.6714970  40.2728000  24.6285450  27.0416710  36.8156580
  23.9350610  27.0394000  36.1558860  25.3708310  26.6176030  36.3850750
  24.1935380  28.6679420  40.8905070  24.6492330  27.8868800  41.2043690
  24.5327900  29.3786240  41.4346250  28.9412190  17.5978270  51.2229510
  28.3256460  18.1057940  50.6944970  28.6208610  16.6976600  51.1655450
  11.9437930  24.4395880  48.0495810  12.1068970  23.9701240  47.2315180
  12.4090380  23.9319440  48.7144650  16.7156700  13.5701640  43.0856380
  16.2724850  14.3511180  42.7540900  17.2741690  13.8931530  43.7927320
  21.0026510  16.4370160  48.6891700  20.5405880  16.6453180  49.5011640
  20.6004620  15.6229510  48.3862370  26.0031020  17.6579110  49.8188360
  25.1524610  17.3584860  50.1397430  25.8432810  17.9021120  48.9072180
  23.0980730  19.1580860  51.9187150  23.4234140  18.3244610  51.5789380
  23.8861060  19.6809380  52.0665480  19.8315520  13.1912340  37.9662210
  19.2069700  13.1872210  38.6915520  19.7445640  12.3243300  37.5698180
  18.7532600  14.1148970  44.9445980  19.0504930  15.0211800  44.8638000
  19.3018160  13.6267750  44.3305550  16.5070920  18.6935210  40.8137630
  16.2811840  18.4772380  41.7184250  15.7263450  19.1263670  40.4683600
  23.7368680  18.6998580  39.4128280  23.1377570  19.4234380  39.2291900
  24.2848290  18.6375360  38.6304730  18.9470130  19.5920790  51.4797900
  18.8513730  18.6515520  51.3298300  19.7902110  19.8135860  51.0845970
  22.3433550  17.3362120  41.4431560  22.7363120  17.6534320  40.6300250
  22.7050400  16.4574000  41.5576080  14.0780670  16.0034460  49.6331680
  13.6844060  16.8509670  49.8404460  13.3899070  15.3660830  49.8240320
  20.6525720  16.0869430  52.7028420  19.9624040  15.8941630  53.3374510
  21.3958020  16.3704070  53.2352720  11.3797720  13.9262920  43.6661760
  11.0910770  14.4965780  44.3786740  12.1243480  13.4467370  44.0292990
  11.5667950  17.8683040  34.8764480  11.4842620  18.8113800  35.0179470
  11.2151010  17.7257950  33.9976830  22.9288690  19.9267870  45.5382340
  22.1969810  20.4354680  45.8872440  22.5313030  19.1097850  45.2371120
  19.3666080  16.6022070  43.9434830  19.3702140  16.1612020  43.0939370
  20.2617200  16.9239400  44.0506650  15.2168460  16.4848560  42.9029040
  14.8768510  16.9623790  43.6596090  14.4545780  16.0313680  42.5430140
  19.4286230  17.6034150  36.9341590  19.5499050  17.5620630  37.8827410
  19.0434740  18.4658300  36.7788320  23.3914600  15.3801550  44.9505280
  23.4087340  15.8310200  45.7947130  23.1430180  14.4807190  45.1638720
  18.4407730  19.9135290  36.3324890  17.8724630  19.4653540  35.7060800
  19.1496730  20.2728070  35.7990040  26.8185350  12.7933730  50.7891660
  27.1431120  12.0623390  51.3149640  26.8541860  12.4747370  49.8872650
  13.5176910  23.8147310  50.2091620  13.1331700  23.1740980  50.8074580
  13.8289100  24.5183430  50.7786350  19.6674050  20.6623850  45.6900240
  20.0344180  20.1882420  46.4361580  19.4779110  21.5365420  46.0308580
  12.5314540  15.4067540  41.8193710  12.2461460  15.0423210  42.6572330
  12.4693400  14.6748000  41.2056850  17.4573420  19.7032490  48.0084450
  17.1530490  20.5824470  48.2334810  18.4119880  19.7632280  48.0441890
  15.9855210  23.9093480  38.6051300  15.2117470  23.3691100  38.4450020
  16.7149840  23.3900090  38.2669060  26.7443190  22.9058840  44.3977690
  27.4642310  23.4014130  44.0073800  26.5425010  22.2276730  43.7531560
  22.2053130  14.2996800  38.5407080  21.3917740  13.8009970  38.4652390
  22.0115080  15.1395050  38.1243430  22.1261990  22.9767900  50.2846690
  22.0599300  22.0563570  50.0304280  21.4967130  23.0743340  50.9991330
  24.9201520  18.6716450  36.8369240  25.8081140  18.9833680  36.6620580
  24.8906610  17.7988700  36.4449820  16.0292610  23.5773860  42.2430110
  16.5471280  22.7742120  42.1887000  15.5776630  23.5153000  43.0846940
  20.9162110  24.8440140  37.5157410  21.2577810  25.5882370  37.0200730
  20.0874820  25.1571260  37.8782240  13.5137150  20.5435230  49.1555810
  13.1552090  21.2089080  49.7429150  13.2191710  19.7118780  49.5268430
  16.7150270  21.0019470  52.0395360  16.4150410  21.1476650  51.1423180
  17.4861510  20.4424760  51.9468750  22.0578720  25.7988470  50.0350490
  22.0723260  24.8669430  49.8169400  21.3503820  25.8848230  50.6740260
  27.1915790  19.9828290  36.3049100  27.1079510  20.4142510  35.4545540
  27.9109980  20.4426640  36.7375920  28.2203040  26.8370550  39.0331230
  27.5779200  26.1826170  39.3074950  27.8333700  27.2425640  38.2571900
  23.7989520  24.1655980  42.8802920  24.1513340  23.5684110  42.2204290
  22.9151850  23.8400210  43.0511170  19.8852800  24.9253670  40.2873330
  20.5723930  25.4722880  40.6680920  19.0985220  25.4694400  40.3222940
  12.0245200  20.5426490  35.7790410  12.8940050  20.8251290  36.0626330
  11.5335520  21.3562360  35.6639220  19.1880010  21.9299700  39.8998690
  19.6442790  22.7404950  40.1258880  18.8368220  21.6122840  40.7317180
  21.4912620  27.4406040  47.1290990  22.1354840  27.6465420  47.8064410
  21.8542060  26.6794440  46.6761840  15.0891790  12.2737350  40.3721210
  14.9606420  12.2655250  41.3206130  14.2653810  12.6120440  40.0212220
  22.7644700  25.4438390  45.8468440  23.4066930  24.7431550  45.9600610
  23.2894050  26.2236830  45.6665330  26.6100420  25.7287010  35.5707580
  26.3838000  25.0117450  36.1632220  26.2196620  25.4799450  34.7329330
  12.3916450  29.7553870  36.3452040  12.7514090  30.3543210  35.6909310
  12.2508790  30.3013760  37.1187070  12.0885720  14.0328470  49.8327910
  11.3744240  14.2325390  50.4380520  12.5080760  13.2568040  50.2042710
  26.1916670  23.6458950  37.2321740  25.9038370  24.1071640  38.0199620
  26.9868840  23.1856720  37.5005960  12.3758310  28.0208730  50.8194440
  12.4849430  27.0803470  50.6789830  11.7238870  28.2863480  50.1708170
  20.3670900  26.2924620  52.2192560  20.0467770  25.5733860  52.7638250
  19.6929260  26.9679690  52.2928620  18.4085070  27.1385070  37.1625710
  18.3995170  27.8714760  36.5470220  17.4883430  26.8916650  37.2552670
  14.0091710  22.3599960  37.9072470  13.4019660  23.0998860  37.9167770
  14.4841060  22.4499320  37.0810670  23.5824500  16.5250780  47.5829360
  23.9505320  15.7045990  47.9108930  22.7222700  16.5852670  47.9985010
  26.9486530  15.4807720  38.3916920  26.3199690  15.5853390  37.6775150
  26.4538450  15.7004500  39.1810800  21.3944670  27.2013310  35.8250900
  21.4956650  26.9977300  34.8952880  20.4946410  26.9471590  36.0298680
  18.9170560  17.7593670  39.8074800  18.2086710  18.2280010  40.2488410
  19.2015040  17.1015680  40.4419990  20.5426490  19.1790370  47.8067330
  21.0411740  19.6536190  48.4719180  20.6849440  18.2553890  48.0137360
  22.9485990  14.4844330  41.2470590  22.8253770  14.5030460  40.2980100
  23.8970550  14.5323270  41.3668990  20.0362780  29.7199630  40.5198570
  20.2904280  29.6821020  39.5977940  19.0875260  29.5932960  40.5126820
  17.1205580  16.0678750  37.1825510  17.9696110  16.5048900  37.1165700
  16.7536850  16.3799010  38.0097570  27.7493350  15.3958330  48.6495720
  27.2466950  16.1363730  48.9889530  28.5650010  15.7842330  48.3332510
  26.0415360  20.6391510  42.0957080  25.1005500  20.6541740  42.2704770
  26.3559430  19.8527470  42.5417380  16.0197000  22.3211110  35.6561040
  16.7860270  22.2092470  36.2186470  16.0971690  21.6249080  35.0037810
  14.7143760  19.7536180  36.3393930  14.7947350  18.8063690  36.4511330
  15.6063510  20.0843060  36.4454590  15.5158470  29.9031570  43.4428470
  16.2520950  29.3547030  43.7137040  15.8999390  30.7687580  43.3034460
  12.4003950  25.9705140  39.3169980  11.4743730  26.2126280  39.3075390
  12.8660380  26.7979400  39.1954730  14.5216750  29.0877640  52.6314050
  15.3229480  29.4089690  53.0449450  14.0068570  28.7273220  53.3533960
  18.6260780  29.0761880  35.2654040  19.4189390  29.3650710  34.8135830
  18.1065130  28.6454050  34.5866520  23.3581380  25.1957510  52.5789460
  22.7519540  25.2189110  51.8385210  23.0535490  24.4640550  53.1156710
  27.6790950  28.3032010  36.6890780  27.3932460  27.8897150  35.8744960
  27.4810500  29.2319720  36.5691300  12.2414560  21.5751100  51.5750100
  12.7453580  20.9958380  52.1466330  11.5021980  21.8591330  52.1126470
  19.1438180  24.2965290  35.1296390  19.0388820  23.6817640  35.8557770
  18.9762400  23.7731180  34.3459400  19.2952500  22.9822090  51.1085620
  18.5298170  23.5507090  51.0240290  19.4768460  22.6898300  50.2153850
  22.3840910  23.3585320  35.7338380  21.8351010  23.8054620  36.3781120
  23.0060170  22.8534570  36.2576050  14.2737640  19.7180690  52.4700170
  14.3142980  19.4194560  53.3785400  15.1283140  20.1188300  52.3107690
  18.0516030  22.3176240  37.6303680  18.4732450  22.1516110  38.4735070
  18.1766870  21.5076470  37.1358820  16.2143450  18.2972790  50.4374660
  15.6839910  17.8063740  49.8098000  16.8831520  18.7256990  49.9032590
  20.5643670  21.3413850  34.8780780  21.0849330  20.6262870  34.5121930
  21.2112070  21.9799720  35.1781290  25.1121510  22.7642250  50.2015850
  25.5262530  22.9187330  51.0506270  24.1772510  22.8897470  50.3641630
  25.5843680  20.1038410  52.2055000  26.1664450  19.3490730  52.1175480
  25.7605450  20.6345850  51.4286480  16.7015750  15.2635160  50.5171950
  16.6072620  14.6455910  49.7922820  16.1213140  15.9901450  50.2901860
  19.4677190  13.8208400  47.5499340  19.0194490  13.8432660  46.7044890
  18.8342390  13.4227420  48.1469640  19.8736740  22.7162730  48.1711780
  20.2924850  23.5595460  47.9988020  18.9545370  22.8534770  47.9418560
  22.2100640  20.4478910  49.5549620  22.3296850  19.8520050  50.2944460
  23.0694640  20.4848600  49.1350920  24.5488540  21.0016100  48.1312130
  24.0223760  21.5258720  47.5277270  24.8919880  21.6343490  48.7621860
  16.9474930  18.3909470  34.5761840  16.7463990  17.5276830  34.9375180
  16.7766980  18.3042830  33.6383440  17.7244160  29.0215740  49.2869510
  17.1865250  29.7461800  48.9678210  17.9778120  28.5446080  48.4966850
  18.9769410  16.9900260  50.8125440  19.5669100  16.6816110  51.5003260
  18.1589650  16.5180010  50.9685340  23.7962840  16.6066070  51.0458460
  23.1078360  15.9447610  50.9808450  24.5168860  16.1604340  51.4906920
  24.4263240  13.2017700  37.1048720  24.7065530  12.3585600  37.4608140
  23.6528970  13.4340810  37.6187470  15.7457730  15.4910090  34.5639720
  16.0483630  15.4977520  33.6558870  16.4852320  15.1407950  35.0607380
  20.5806370  30.2566950  49.5456160  20.5065070  31.1602090  49.8528530
  19.6785210  29.9378850  49.5178230  18.9642660  14.4344710  35.5495920
  18.6164660  13.7568700  34.9698370  19.1655430  13.9734220  36.3639310
  21.1291700  29.4225460  37.1682520  22.0242490  29.7610430  37.1901280
  21.1609330  28.7004870  36.5406800  14.7687860  24.7952510  35.3969520
  15.2062730  25.3382180  36.0527100  15.2535590  23.9699460  35.4065860
  11.9833660  27.5841540  42.8489780  12.3136670  26.7162600  42.6168420
  12.4124660  27.7900060  43.6794740  16.5795580  25.9150550  40.5091750
  16.2791120  25.7915520  41.4095660  16.4733070  25.0559140  40.1007480
  12.4723870  28.4512130  45.5871410  12.0354860  28.6312930  46.4195560
  13.0401550  29.2086750  45.4453130  29.3487500  25.6946950  35.2118430
  28.5180460  25.7623600  35.6825660  29.5259330  26.5851070  34.9085290
  28.8043960  22.4394430  37.7152630  29.5662870  23.0091080  37.8212320
  28.8198330  21.8721630  38.4860940  12.3048300  20.9632360  41.9460290
  11.6497140  20.6944000  41.3019990  13.1426250  20.8536840  41.4962270
  29.8103930  23.2944530  42.5594560  30.1812760  22.5111850  42.1530530
  30.4505860  23.9833630  42.3811860  28.8563130  22.7328800  34.8725150
  29.1311970  23.6407680  34.7444370  28.6673870  22.6691330  35.8087140
  25.2538740  15.7573650  36.1678780  25.6723620  15.5704630  35.3275440
  24.9474800  14.9052700  36.4781710  28.7528470  20.6697790  39.8654580
  28.3772070  19.9025720  39.4335870  28.0231590  21.0520490  40.3529510
  13.3424230  21.3484930  46.4863630  13.7097270  21.2612330  47.3659650
  12.7735050  20.5851480  46.3870490  28.1428090  19.8169310  49.4994100
  27.9114180  19.5882060  48.5992050  28.4032640  20.7368860  49.4538990
  12.8940230  18.2594020  50.3922050  11.9996280  18.2260780  50.7315760
  13.4337780  18.4580810  51.1573300  26.5816160  15.0425740  52.2773800
  27.4586340  15.0509140  52.6607800  26.5937000  14.3056580  51.6666150
  11.5186380  18.1731290  37.8885620  10.6150460  18.4361490  37.7137280
  12.0027000  18.4442460  37.1085580  28.0279430  18.8955280  43.1661820
  28.5516910  18.4017930  42.5351990  28.6138850  19.0305640  43.9109390
  28.2069150  18.9795150  46.6881370  27.2571860  18.9458690  46.8026360
  28.3882160  19.8895260  46.4531140  14.0613590  17.2296830  35.7980000
  14.7705290  16.8080050  35.3127280  13.3453530  17.2972060  35.1663350
  13.7087750  13.2836160  34.8382650  14.4315880  13.8245100  35.1563870
  13.9812270  13.0099580  33.9624190  27.5179400  18.1528630  39.1054230
  28.0138520  17.9199500  39.8903110  27.3195470  17.3140470  38.6891870
  13.3979940  12.5342350  44.7405270  14.0456130  11.9839730  44.3000430
  13.8181780  12.7885500  45.5621080  28.9466560  16.7889580  41.6391910
  28.8365840  16.6345620  42.5774180  29.7074150  16.2610520  41.3967320
  27.2932280  12.7283710  48.0974910  27.9304500  13.3417850  48.4634100
  27.4407170  12.7644370  47.1524140  29.8356830  14.6197500  34.8798050
  30.7606140  14.4878680  34.6716340  29.8132620  14.6990320  35.8334500
  29.9095320  15.3908160  37.5054760  29.1146820  15.3253280  38.0347670
  30.1138600  16.3258800  37.4940110  26.8513740  29.4299710  41.4993150
  27.4472810  29.1084280  40.8227570  27.1091890  28.9571530  42.2906420
  13.1511940  12.6898020  47.4830590  12.8026760  13.1461840  48.2488770
  12.8199640  11.7955150  47.5653020  14.7576310  25.8617620  51.6483780
  14.7145940  25.4910530  52.5298240  14.8887320  26.7995190  51.7885600
  18.4582340  27.4177210  47.2493500  18.2173700  27.6851770  46.3624020
  19.3984980  27.5882940  47.3044360  20.6636760  13.8809900  51.0050010
  20.6025650  14.4731730  51.7545420  21.6037140  13.7735860  50.8600270
  23.3011320  13.5379960  50.6442300  23.9151730  13.8559250  49.9823380
  23.8460880  13.0528550  51.2638160  13.8232580  12.2174220  50.7581360
  14.3715570  12.0362270  49.9947470  13.8887890  11.4268330  51.2937670
  14.5964340  28.8079870  48.7681560  14.0024660  28.6764570  49.5071600
  14.5888180  27.9718010  48.3023660  24.0419360  12.1012100  46.9711590
  23.1679200  12.4347210  46.7684520  23.9330110  11.6285280  47.7963460
  24.9491340  14.3082970  48.3553310  24.6204700  13.4934730  47.9755040
  25.8973640  14.2652780  48.2319000  14.2276570  26.1738250  47.7189600
  13.5010630  25.5543540  47.6515550  14.2885720  26.5678860  46.8487680
  17.8321670  28.3883250  44.5039010  18.3486690  27.7770610  43.9787270
  18.4819050  28.8912030  44.9950020  20.5717170  29.2791740  45.3307990
  20.8594980  29.0246040  44.4541000  21.0840390  28.7269100  45.9213560
  21.7894180  13.0181940  45.9104500  21.0065970  13.4927440  46.1901260
  21.4957110  12.1136770  45.8017680  26.3415250  13.7205040  43.9553590
  26.7823340  13.6650140  43.1075190  26.0722840  14.6363050  44.0263770
  28.2053820  13.3520280  41.9662410  28.1442220  12.4081500  41.8193430
  28.9845850  13.4600370  42.5115870  12.5106570  29.4912640  40.9286360
  12.3428610  28.8583320  41.6268250  11.6441080  29.6972040  40.5780550
  13.1334590  13.3229420  38.4318220  13.8913950  13.4358300  37.8582250
  12.6711760  14.1598620  38.3861650  19.6748400  15.4368690  41.4220530
  18.8622910  15.0625580  41.0816410  20.1790040  14.6813770  41.7241720
  24.1773380  12.1011140  42.6603600  24.7802750  12.6731350  43.1352120
  23.4366370  12.6650580  42.4377500  27.3207980  12.5032700  37.9343880
  27.5158610  13.4016150  38.2011310  26.5337850  12.2719780  38.4276830
  14.1169270  28.1845870  38.3736500  13.5916890  28.5653900  37.6698460
  14.0413850  28.8096640  39.0946210  15.5059740  13.8493470  36.9720190
  16.0352500  13.0623270  36.8428140  16.1388060  14.5284660  37.2055720
  17.6997580  13.5868610  40.0265580  17.0700320  12.8855920  40.1935710
  17.1602720  14.3472740  39.8098740  20.6389530  30.2007840  52.6976190
  21.5656840  29.9652110  52.7412150  20.6239960  31.0279840  52.2162220
  28.8734590  29.7433410  39.6950440  29.0486780  29.0571150  39.0511360
  28.1756160  30.2680460  39.3027110  17.8253140  12.8652590  52.4618070
  17.5437410  13.3686190  51.6978890  18.2072840  12.0674340  52.0960200
  16.7162240  30.1328250  37.2485750  17.4481060  29.8487530  36.7009640
  16.9755910  29.8941530  38.1385130  15.8777030  26.2492980  37.2532080
  15.2485910  26.7178080  37.8017910  15.9924860  25.4042200  37.6878270
  24.4268600  12.2806170  53.0398540  24.3134050  12.6000780  53.9350060
  25.2438340  12.6818680  52.7435820  23.3326750  20.2998640  23.4033280
  23.2520800  19.3853250  23.1324990  22.9191170  20.7965710  22.6972990
  21.4644790  22.0777660  25.2842550  20.6886890  21.5978100  25.5741120
  22.1157720  21.3983310  25.1098710  15.4810620  22.3897470  26.1618310
  14.6495500  22.1346180  26.5614820  16.0891600  22.4608240  26.8976230
  25.4852220  26.4837850  24.0641680  25.0233750  25.7125090  24.3928850
  26.2977770  26.5103920  24.5694130  15.4611880  26.4237560  26.3576330
  15.7639920  25.5335300  26.1786550  16.2055470  26.9807780  26.1298580
  13.8902570  17.3499360  19.9460700  13.0019270  17.6915330  19.8440580
  14.1743760  17.1499680  19.0541530  11.8535580  19.9505010  25.8300400
  12.4251690  19.1827210  25.8304040  11.8537120  20.2493770  24.9207010
  21.7115530  28.7695860  23.6845670  21.0926970  29.2253360  23.1140110
  22.5667310  28.9247320  23.2835370  20.9053780  24.7534850  25.2912710
  20.8362060  23.8124790  25.1301840  21.6673640  24.8436260  25.8635280
  13.0960450  15.3589370  27.6169330  12.9163290  14.4615120  27.8972090
  12.6940530  15.9061240  28.2916280  21.9358950  17.5605230  25.5181640
  22.3123770  16.6877110  25.4055310  21.8378460  17.8963930  24.6272080
  16.0663960  15.9330860  20.9799080  16.1730710  16.8334590  21.2867840
  15.1556320  15.8848830  20.6893730  25.7183070  15.0555670  22.4509980
  26.5392690  14.5652240  22.4935460  25.7517150  15.6453330  23.2041820
  13.7147120  17.8549870  26.2251670  14.3957230  18.1188240  26.8439070
  13.3995170  17.0150740  26.5589680  17.9071690  18.9017230  25.3124260
  18.4149910  19.3998200  25.9529280  18.4384930  18.1252430  25.1363620
  30.0082620  17.0722420  29.0153610  29.3034790  17.4604130  28.4968720
  30.2740540  17.7672710  29.6174540  16.1907790  13.5415790  29.5787680
  16.1926230  14.0588180  28.7733580  15.3612100  13.0645970  29.5557610
  22.5778880  23.6535100  21.0777580  21.9596150  24.1184550  20.5140300
  23.0902130  24.3462580  21.4947090  17.4410640  23.1810970  27.7561180
  17.1080020  23.8079890  28.3982250  17.6177320  23.7072850  26.9762850
  25.9544550  16.9956050  25.2237520  25.2500120  17.2840940  25.8040630
  26.3156710  17.8056160  24.8637080  15.8723120  15.2525750  27.5858130
  16.2139930  16.0967800  27.2912000  14.9338930  15.4009490  27.7023470
  16.6529740  25.1491770  29.5710360  17.2703740  25.8242850  29.2894810
  15.7922860  25.5579750  29.4797860  11.9462080  24.3391630  18.4517210
  11.5690060  24.8278730  17.7202110  12.2035150  25.0116910  19.0823740
  27.5707330  26.6131180  27.4865000  26.8870850  27.2830290  27.4781670
  28.1101620  26.8111830  26.7209860  29.0231470  16.4410840  25.6146730
  28.0756380  16.4749820  25.7462160  29.3481460  17.2549790  25.9996090
  19.5551010  12.7408020  23.9102720  19.8625990  12.1854910  23.1938220
  18.6251710  12.8752480  23.7275710  25.1066070  28.4575310  26.2010180
  25.1193230  28.0537600  25.3332440  24.5541290  29.2322600  26.0971610
  26.4011490  25.1791530  21.2900350  26.2907820  24.2365860  21.4149770
  26.3979740  25.5407170  22.1763110  24.5051510  23.3605150  27.5292790
  24.9220300  23.1465260  26.6946250  25.2291330  23.6177940  28.1001410
  21.9431770  20.8056850  20.6462840  21.0161050  20.7394230  20.8751310
  22.0956590  21.7436980  20.5318080  21.9300850  17.0773850  17.6430000
  20.9904520  17.2387810  17.7282460  22.2484110  17.7959530  17.0965990
  28.4513610  21.7592370  27.6209030  27.6232240  21.8285460  27.1459160
  29.0464090  22.3446680  27.1524860  25.9729060  22.3677150  21.1498090
  25.3541480  22.0296700  20.5024390  25.9553510  21.7236910  21.8577280
  25.4155620  18.5461690  28.5663900  25.0026800  19.3715400  28.8203890
  24.6831570  17.9606730  28.3740260  17.5488410  21.3321590  23.4282570
  17.1445410  20.6198840  22.9328470  17.6351530  20.9874830  24.3170610
  18.0170110  25.0189150  25.5921780  17.7198400  24.4134620  24.9129560
  18.9669930  25.0566460  25.4811140  16.2617030  18.1064800  27.2081610
  16.8131620  18.2160140  26.4334860  16.7760540  18.4802400  27.9236840
  26.1055720  28.5921020  29.2544880  25.6286280  29.3993210  29.0617490
  25.4217510  27.9399350  29.4071090  17.1088540  24.7570840  32.2429580
  16.2117070  24.9810810  32.4902980  17.1341410  24.8805780  31.2940980
  24.1493760  21.6063960  18.1570840  24.5887040  20.7686390  18.0108660
  24.8622180  22.2393360  18.2434980  15.9359760  21.6284160  30.8186950
  15.7967530  22.5006960  31.1874350  15.0541120  21.2856970  30.6734890
  22.2589140  26.5460030  22.1252080  22.6985050  27.2884360  21.7107470
  22.1976030  26.7886600  23.0491040  17.7340110  27.5705860  33.0272100
  17.7055540  27.9748810  32.1600530  17.5705080  26.6416220  32.8643700
  27.7310900  12.8606770  16.4711880  27.4183560  12.9533600  17.3710950
  28.4923370  13.4387800  16.4209310  14.2493040  20.2266570  20.9289220
  14.1290640  20.9528660  20.3170490  13.9393930  19.4569480  20.4517130
  29.6854930  28.3532960  34.3236270  30.1614650  28.8315850  35.0025350
  30.3062090  28.2850450  33.5981770  11.8878410  23.3981710  26.7357860
  11.9658830  23.5330480  25.7913580  12.5020090  22.6897600  26.9285980
  13.1326040  25.0981900  23.1464040  12.7254120  25.2396490  22.2917640
  14.0239050  24.8142060  22.9435250  29.0888180  25.5445810  31.4836280
  29.2151240  25.3057690  30.5653460  29.1309560  24.7130350  31.9558360
  22.9504920  29.2473810  30.0531090  23.4649590  29.1581820  30.8553520
  22.1074000  29.5933510  30.3459000  24.9259320  29.5329150  19.4815090
  24.7660460  29.2432090  20.3796920  24.7606030  28.7569280  18.9460320
  17.4047700  29.3127680  21.2586710  17.2290180  28.3963220  21.0454510
  16.5503440  29.6714970  21.4984510  24.6285450  27.0416710  18.0413090
  23.9350610  27.0394000  17.3815370  25.3708310  26.6176030  17.6107260
  24.1935380  28.6679420  22.1161580  24.6492330  27.8868800  22.4300200
  24.5327900  29.3786240  22.6602760  28.9412190  17.5978270  32.4486020
  28.3256460  18.1057940  31.9201480  28.6208610  16.6976600  32.3911960
  11.9437930  24.4395880  29.2752320  12.1068970  23.9701240  28.4571690
  12.4090380  23.9319440  29.9401160  16.7156700  13.5701640  24.3112890
  16.2724850  14.3511180  23.9797410  17.2741690  13.8931530  25.0183830
  21.0026510  16.4370160  29.9148210  20.5405880  16.6453180  30.7268150
  20.6004620  15.6229510  29.6118880  26.0031020  17.6579110  31.0444870
  25.1524610  17.3584860  31.3653940  25.8432810  17.9021120  30.1328690
  23.0980730  19.1580860  33.1443660  23.4234140  18.3244610  32.8045890
  23.8861060  19.6809380  33.2921990  19.8315520  13.1912340  19.1918720
  19.2069700  13.1872210  19.9172030  19.7445640  12.3243300  18.7954690
  18.7532600  14.1148970  26.1702490  19.0504930  15.0211800  26.0894510
  19.3018160  13.6267750  25.5562060  16.5070920  18.6935210  22.0394140
  16.2811840  18.4772380  22.9440760  15.7263450  19.1263670  21.6940110
  23.7368680  18.6998580  20.6384790  23.1377570  19.4234380  20.4548410
  24.2848290  18.6375360  19.8561240  18.9470130  19.5920790  32.7054410
  18.8513730  18.6515520  32.5554810  19.7902110  19.8135860  32.3102480
  22.3433550  17.3362120  22.6688070  22.7363120  17.6534320  21.8556760
  22.7050400  16.4574000  22.7832590  14.0780670  16.0034460  30.8588190
  13.6844060  16.8509670  31.0660970  13.3899070  15.3660830  31.0496830
  20.6525720  16.0869430  33.9284930  19.9624040  15.8941630  34.5631020
  21.3958020  16.3704070  34.4609230  11.3797720  13.9262920  24.8918270
  11.0910770  14.4965780  25.6043250  12.1243480  13.4467370  25.2549500
  11.5667950  17.8683040  16.1020990  11.4842620  18.8113800  16.2435980
  11.2151010  17.7257950  15.2233340  22.9288690  19.9267870  26.7638850
  22.1969810  20.4354680  27.1128950  22.5313030  19.1097850  26.4627630
  19.3666080  16.6022070  25.1691340  19.3702140  16.1612020  24.3195880
  20.2617200  16.9239400  25.2763160  15.2168460  16.4848560  24.1285550
  14.8768510  16.9623790  24.8852600  14.4545780  16.0313680  23.7686650
  19.4286230  17.6034150  18.1598100  19.5499050  17.5620630  19.1083920
  19.0434740  18.4658300  18.0044830  23.3914600  15.3801550  26.1761790
  23.4087340  15.8310200  27.0203640  23.1430180  14.4807190  26.3895230
  18.4407730  19.9135290  17.5581400  17.8724630  19.4653540  16.9317310
  19.1496730  20.2728070  17.0246550  26.8185350  12.7933730  32.0148170
  27.1431120  12.0623390  32.5406150  26.8541860  12.4747370  31.1129160
  13.5176910  23.8147310  31.4348130  13.1331700  23.1740980  32.0331090
  13.8289100  24.5183430  32.0042860  19.6674050  20.6623850  26.9156750
  20.0344180  20.1882420  27.6618090  19.4779110  21.5365420  27.2565090
  12.5314540  15.4067540  23.0450220  12.2461460  15.0423210  23.8828840
  12.4693400  14.6748000  22.4313360  17.4573420  19.7032490  29.2340960
  17.1530490  20.5824470  29.4591320  18.4119880  19.7632280  29.2698400
  15.9855210  23.9093480  19.8307810  15.2117470  23.3691100  19.6706530
  16.7149840  23.3900090  19.4925570  26.7443190  22.9058840  25.6234200
  27.4642310  23.4014130  25.2330310  26.5425010  22.2276730  24.9788070
  22.2053130  14.2996800  19.7663590  21.3917740  13.8009970  19.6908900
  22.0115080  15.1395050  19.3499940  22.1261990  22.9767900  31.5103200
  22.0599300  22.0563570  31.2560790  21.4967130  23.0743340  32.2247840
  24.9201520  18.6716450  18.0625750  25.8081140  18.9833680  17.8877090
  24.8906610  17.7988700  17.6706330  16.0292610  23.5773860  23.4686620
  16.5471280  22.7742120  23.4143510  15.5776630  23.5153000  24.3103450
  20.9162110  24.8440140  18.7413920  21.2577810  25.5882370  18.2457240
  20.0874820  25.1571260  19.1038750  13.5137150  20.5435230  30.3812320
  13.1552090  21.2089080  30.9685660  13.2191710  19.7118780  30.7524940
  16.7150270  21.0019470  33.2651870  16.4150410  21.1476650  32.3679690
  17.4861510  20.4424760  33.1725260  22.0578720  25.7988470  31.2607000
  22.0723260  24.8669430  31.0425910  21.3503820  25.8848230  31.8996770
  27.1915790  19.9828290  17.5305610  27.1079510  20.4142510  16.6802050
  27.9109980  20.4426640  17.9632430  28.2689930  22.4395810  30.6075580
  27.5438120  23.0324590  30.4104970  28.7965390  22.4319350  29.8088950
  28.2203040  26.8370550  20.2587740  27.5779200  26.1826170  20.5331460
  27.8333700  27.2425640  19.4828410  23.7989520  24.1655980  24.1059430
  24.1513340  23.5684110  23.4460800  22.9151850  23.8400210  24.2767680
  19.8852800  24.9253670  21.5129840  20.5723930  25.4722880  21.8937430
  19.0985220  25.4694400  21.5479450  12.0245200  20.5426490  17.0046920
  12.8940050  20.8251290  17.2882840  11.5335520  21.3562360  16.8895730
  19.1880010  21.9299700  21.1255200  19.6442790  22.7404950  21.3515390
  18.8368220  21.6122840  21.9573690  21.4912620  27.4406040  28.3547500
  22.1354840  27.6465420  29.0320920  21.8542060  26.6794440  27.9018350
  15.0891790  12.2737350  21.5977720  14.9606420  12.2655250  22.5462640
  14.2653810  12.6120440  21.2468730  22.7644700  25.4438390  27.0724950
  23.4066930  24.7431550  27.1857120  23.2894050  26.2236830  26.8921840
  26.6100420  25.7287010  16.7964090  26.3838000  25.0117450  17.3888730
  26.2196620  25.4799450  15.9585840  24.5382320  26.2433290  30.2761010
  24.8738560  26.8299980  30.9538930  23.6182660  26.1126000  30.5058800
  12.3916450  29.7553870  17.5708550  12.7514090  30.3543210  16.9165820
  12.2508790  30.3013760  18.3443580  12.0885720  14.0328470  31.0584420
  11.3744240  14.2325390  31.6637030  12.5080760  13.2568040  31.4299220
  26.1916670  23.6458950  18.4578250  25.9038370  24.1071640  19.2456130
  26.9868840  23.1856720  18.7262470  12.3758310  28.0208730  32.0450950
  12.4849430  27.0803470  31.9046340  11.7238870  28.2863480  31.3964680
  20.3670900  26.2924620  33.4449070  20.0467770  25.5733860  33.9894760
  19.6929260  26.9679690  33.5185130  18.4085070  27.1385070  18.3882220
  18.3995170  27.8714760  17.7726730  17.4883430  26.8916650  18.4809180
  14.0091710  22.3599960  19.1328980  13.4019660  23.0998860  19.1424280
  14.4841060  22.4499320  18.3067180  23.5824500  16.5250780  28.8085870
  23.9505320  15.7045990  29.1365440  22.7222700  16.5852670  29.2241520
  26.9486530  15.4807720  19.6173430  26.3199690  15.5853390  18.9031660
  26.4538450  15.7004500  20.4067310  21.3944670  27.2013310  17.0507410
  21.4956650  26.9977300  16.1209390  20.4946410  26.9471590  17.2555190
  18.9170560  17.7593670  21.0331310  18.2086710  18.2280010  21.4744920
  19.2015040  17.1015680  21.6676500  20.5426490  19.1790370  29.0323840
  21.0411740  19.6536190  29.6975690  20.6849440  18.2553890  29.2393870
  22.9485990  14.4844330  22.4727100  22.8253770  14.5030460  21.5236610
  23.8970550  14.5323270  22.5925500  20.0362780  29.7199630  21.7455080
  20.2904280  29.6821020  20.8234450  19.0875260  29.5932960  21.7383330
  17.1205580  16.0678750  18.4082020  17.9696110  16.5048900  18.3422210
  16.7536850  16.3799010  19.2354080  27.7493350  15.3958330  29.8752230
  27.2466950  16.1363730  30.2146040  28.5650010  15.7842330  29.5589020
  26.0415360  20.6391510  23.3213590  25.1005500  20.6541740  23.4961280
  26.3559430  19.8527470  23.7673890  16.0197000  22.3211110  16.8817550
  16.7860270  22.2092470  17.4442980  16.0971690  21.6249080  16.2294320
  14.7143760  19.7536180  17.5650440  14.7947350  18.8063690  17.6767840
  15.6063510  20.0843060  17.6711100  28.0440940  27.8100360  24.9967850
  28.1688360  28.6331530  25.4691660  28.9106500  27.5991090  24.6492000
  15.5158470  29.9031570  24.6684980  16.2520950  29.3547030  24.9393550
  15.8999390  30.7687580  24.5290970  12.4003950  25.9705140  20.5426490
  11.4743730  26.2126280  20.5331900  12.8660380  26.7979400  20.4211240
  14.5216750  29.0877640  33.8570560  15.3229480  29.4089690  34.2705960
  14.0068570  28.7273220  34.5790470  18.6260780  29.0761880  16.4910550
  19.4189390  29.3650710  16.0392340  18.1065130  28.6454050  15.8123030
  23.3581380  25.1957510  33.8045970  22.7519540  25.2189110  33.0641720
  23.0535490  24.4640550  34.3413220  24.7881750  28.9237800  32.4155380
  25.7403500  28.8395820  32.3655620  24.6409970  29.5879510  33.0889170
  27.6790950  28.3032010  17.9147290  27.3932460  27.8897150  17.1001470
  27.4810500  29.2319720  17.7947810  12.2414560  21.5751100  32.8006610
  12.7453580  20.9958380  33.3722840  11.5021980  21.8591330  33.3382980
  19.1438180  24.2965290  16.3552900  19.0388820  23.6817640  17.0814280
  18.9762400  23.7731180  15.5715910  19.2952500  22.9822090  32.3342130
  18.5298170  23.5507090  32.2496800  19.4768460  22.6898300  31.4410360
  22.3840910  23.3585320  16.9594890  21.8351010  23.8054620  17.6037630
  23.0060170  22.8534570  17.4832560  26.4375850  24.7127420  32.8917150
  27.1785320  25.0503180  32.3884610  25.6748530  24.8819480  32.3386920
  14.2737640  19.7180690  33.6956680  14.3142980  19.4194560  34.6041910
  15.1283140  20.1188300  33.5364200  18.0516030  22.3176240  18.8560190
  18.4732450  22.1516110  19.6991580  18.1766870  21.5076470  18.3615330
  16.2143450  18.2972790  31.6631170  15.6839910  17.8063740  31.0354510
  16.8831520  18.7256990  31.1289100  20.5643670  21.3413850  16.1037290
  21.0849330  20.6262870  15.7378440  21.2112070  21.9799720  16.4037800
  25.1121510  22.7642250  31.4272360  25.5262530  22.9187330  32.2762780
  24.1772510  22.8897470  31.5898140  25.5843680  20.1038410  33.4311510
  26.1664450  19.3490730  33.3431990  25.7605450  20.6345850  32.6542990
  16.7015750  15.2635160  31.7428460  16.6072620  14.6455910  31.0179330
  16.1213140  15.9901450  31.5158370  19.4677190  13.8208400  28.7755850
  19.0194490  13.8432660  27.9301400  18.8342390  13.4227420  29.3726150
  19.8736740  22.7162730  29.3968290  20.2924850  23.5595460  29.2244530
  18.9545370  22.8534770  29.1675070  22.2100640  20.4478910  30.7806130
  22.3296850  19.8520050  31.5200970  23.0694640  20.4848600  30.3607430
  24.5488540  21.0016100  29.3568640  24.0223760  21.5258720  28.7533780
  24.8919880  21.6343490  29.9878370  16.9474930  18.3909470  15.8018350
  16.7463990  17.5276830  16.1631690  16.7766980  18.3042830  14.8639950
  17.7244160  29.0215740  30.5126020  17.1865250  29.7461800  30.1934720
  17.9778120  28.5446080  29.7223360  18.9769410  16.9900260  32.0381950
  19.5669100  16.6816110  32.7259770  18.1589650  16.5180010  32.1941850
  23.7962840  16.6066070  32.2714970  23.1078360  15.9447610  32.2064960
  24.5168860  16.1604340  32.7163430  24.4263240  13.2017700  18.3305230
  24.7065530  12.3585600  18.6864650  23.6528970  13.4340810  18.8443980
  15.7457730  15.4910090  15.7896230  16.0483630  15.4977520  14.8815380
  16.4852320  15.1407950  16.2863890  20.5806370  30.2566950  30.7712670
  20.5065070  31.1602090  31.0785040  19.6785210  29.9378850  30.7434740
  18.9642660  14.4344710  16.7752430  18.6164660  13.7568700  16.1954880
  19.1655430  13.9734220  17.5895820  21.1291700  29.4225460  18.3939030
  22.0242490  29.7610430  18.4157790  21.1609330  28.7004870  17.7663310
  14.7687860  24.7952510  16.6226030  15.2062730  25.3382180  17.2783610
  15.2535590  23.9699460  16.6322370  11.9833660  27.5841540  24.0746290
  12.3136670  26.7162600  23.8424930  12.4124660  27.7900060  24.9051250
  16.5795580  25.9150550  21.7348260  16.2791120  25.7915520  22.6352170
  16.4733070  25.0559140  21.3263990  12.4723870  28.4512130  26.8127920
  12.0354860  28.6312930  27.6452070  13.0401550  29.2086750  26.6709640
  28.1086050  27.9529130  31.1005230  27.5088040  28.0121690  30.3569150
  28.2379950  27.0134110  31.2302080  29.3487500  25.6946950  16.4374940
  28.5180460  25.7623600  16.9082170  29.5259330  26.5851070  16.1341800
  28.8043960  22.4394430  18.9409140  29.5662870  23.0091080  19.0468830
  28.8198330  21.8721630  19.7117450  12.3048300  20.9632360  23.1716800
  11.6497140  20.6944000  22.5276500  13.1426250  20.8536840  22.7218780
  29.8103930  23.2944530  23.7851070  30.1812760  22.5111850  23.3787040
  30.4505860  23.9833630  23.6068370  26.7937690  24.6781110  29.1981390
  25.9797530  25.1078270  29.4607180  27.2011890  25.2899520  28.5850440
  28.8563130  22.7328800  16.0981660  29.1311970  23.6407680  15.9700880
  28.6673870  22.6691330  17.0343650  25.2538740  15.7573650  17.3935290
  25.6723620  15.5704630  16.5531950  24.9474800  14.9052700  17.7038220
  28.7528470  20.6697790  21.0911090  28.3772070  19.9025720  20.6592380
  28.0231590  21.0520490  21.5786020  13.3424230  21.3484930  27.7120140
  13.7097270  21.2612330  28.5916160  12.7735050  20.5851480  27.6127000
  28.1428090  19.8169310  30.7250610  27.9114180  19.5882060  29.8248560
  28.4032640  20.7368860  30.6795500  12.8940230  18.2594020  31.6178560
  11.9996280  18.2260780  31.9572270  13.4337780  18.4580810  32.3829810
  26.5816160  15.0425740  33.5030310  27.4586340  15.0509140  33.8864310
  26.5937000  14.3056580  32.8922660  11.5186380  18.1731290  19.1142130
  10.6150460  18.4361490  18.9393790  12.0027000  18.4442460  18.3342090
  28.0279430  18.8955280  24.3918330  28.5516910  18.4017930  23.7608500
  28.6138850  19.0305640  25.1365900  28.2069150  18.9795150  27.9137880
  27.2571860  18.9458690  28.0282870  28.3882160  19.8895260  27.6787650
  14.0613590  17.2296830  17.0236510  14.7705290  16.8080050  16.5383790
  13.3453530  17.2972060  16.3919860  13.7087750  13.2836160  16.0639160
  14.4315880  13.8245100  16.3820380  13.9812270  13.0099580  15.1880700
  27.5179400  18.1528630  20.3310740  28.0138520  17.9199500  21.1159620
  27.3195470  17.3140470  19.9148380  13.3979940  12.5342350  25.9661780
  14.0456130  11.9839730  25.5256940  13.8181780  12.7885500  26.7877590
  28.9466560  16.7889580  22.8648420  28.8365840  16.6345620  23.8030690
  29.7074150  16.2610520  22.6223830  27.2932280  12.7283710  29.3231420
  27.9304500  13.3417850  29.6890610  27.4407170  12.7644370  28.3780650
  29.8356830  14.6197500  16.1054560  30.7606140  14.4878680  15.8972850
  29.8132620  14.6990320  17.0591010  29.9095320  15.3908160  18.7311270
  29.1146820  15.3253280  19.2604180  30.1138600  16.3258800  18.7196620
  26.8513740  29.4299710  22.7249660  27.4472810  29.1084280  22.0484080
  27.1091890  28.9571530  23.5162930  13.1511940  12.6898020  28.7087100
  12.8026760  13.1461840  29.4745280  12.8199640  11.7955150  28.7909530
  14.7576310  25.8617620  32.8740290  14.7145940  25.4910530  33.7554750
  14.8887320  26.7995190  33.0142110  18.4582340  27.4177210  28.4750010
  18.2173700  27.6851770  27.5880530  19.3984980  27.5882940  28.5300870
  20.6636760  13.8809900  32.2306520  20.6025650  14.4731730  32.9801930
  21.6037140  13.7735860  32.0856780  23.3011320  13.5379960  31.8698810
  23.9151730  13.8559250  31.2079890  23.8460880  13.0528550  32.4894670
  29.7186500  29.4371590  29.2760650  29.2244780  29.8340460  28.5587780
  29.1099790  28.8120800  29.6697930  13.8232580  12.2174220  31.9837870
  14.3715570  12.0362270  31.2203980  13.8887890  11.4268330  32.5194180
  14.5964340  28.8079870  29.9938070  14.0024660  28.6764570  30.7328110
  14.5888180  27.9718010  29.5280170  24.0419360  12.1012100  28.1968100
  23.1679200  12.4347210  27.9941030  23.9330110  11.6285280  29.0219970
  24.9491340  14.3082970  29.5809820  24.6204700  13.4934730  29.2011550
  25.8973640  14.2652780  29.4575510  27.4025950  30.0795010  26.5547390
  26.9428920  30.8310820  26.1805410  26.7738410  29.3601480  26.4962190
  14.2276570  26.1738250  28.9446110  13.5010630  25.5543540  28.8772060
  14.2885720  26.5678860  28.0744190  17.8321670  28.3883250  25.7295520
  18.3486690  27.7770610  25.2043780  18.4819050  28.8912030  26.2206530
  20.5717170  29.2791740  26.5564500  20.8594980  29.0246040  25.6797510
  21.0840390  28.7269100  27.1470070  21.7894180  13.0181940  27.1361010
  21.0065970  13.4927440  27.4157770  21.4957110  12.1136770  27.0274190
  26.3415250  13.7205040  25.1810100  26.7823340  13.6650140  24.3331700
  26.0722840  14.6363050  25.2520280  28.2053820  13.3520280  23.1918920
  28.1442220  12.4081500  23.0449940  28.9845850  13.4600370  23.7372380
  12.5106570  29.4912640  22.1542870  12.3428610  28.8583320  22.8524760
  11.6441080  29.6972040  21.8037060  13.1334590  13.3229420  19.6574730
  13.8913950  13.4358300  19.0838760  12.6711760  14.1598620  19.6118160
  19.6748400  15.4368690  22.6477040  18.8622910  15.0625580  22.3072920
  20.1790040  14.6813770  22.9498230  24.1773380  12.1011140  23.8860110
  24.7802750  12.6731350  24.3608630  23.4366370  12.6650580  23.6634010
  27.3207980  12.5032700  19.1600390  27.5158610  13.4016150  19.4267820
  26.5337850  12.2719780  19.6533340  14.1169270  28.1845870  19.5993010
  13.5916890  28.5653900  18.8954970  14.0413850  28.8096640  20.3202720
  15.5059740  13.8493470  18.1976700  16.0352500  13.0623270  18.0684650
  16.1388060  14.5284660  18.4312230  17.6997580  13.5868610  21.2522090
  17.0700320  12.8855920  21.4192220  17.1602720  14.3472740  21.0355250
  20.6389530  30.2007840  33.9232700  21.5656840  29.9652110  33.9668660
  20.6239960  31.0279840  33.4418730  28.8734590  29.7433410  20.9206950
  29.0486780  29.0571150  20.2767870  28.1756160  30.2680460  20.5283620
  17.8253140  12.8652590  33.6874580  17.5437410  13.3686190  32.9235400
  18.2072840  12.0674340  33.3216710  16.7162240  30.1328250  18.4742260
  17.4481060  29.8487530  17.9266150  16.9755910  29.8941530  19.3641640
  15.8777030  26.2492980  18.4788590  15.2485910  26.7178080  19.0274420
  15.9924860  25.4042200  18.9134780  24.4268600  12.2806170  34.2655050
  24.3134050  12.6000780  35.1606570  25.2438340  12.6818680  33.9692330
  27.2067090  29.4277700  33.7473740  27.9992410  28.9326930  33.5399700
  27.5000240  30.1067840  34.3549350  23.3326750  20.2998640   4.6289790
  23.2520800  19.3853250   4.3581500  22.9191170  20.7965710   3.9229500
  21.4644790  22.0777660   6.5099060  20.6886890  21.5978100   6.7997630
  22.1157720  21.3983310   6.3355220  15.4810620  22.3897470   7.3874820
  14.6495500  22.1346180   7.7871330  16.0891600  22.4608240   8.1232740
  25.4852220  26.4837850   5.2898190  25.0233750  25.7125090   5.6185360
  26.2977770  26.5103920   5.7950640  15.4611880  26.4237560   7.5832840
  15.7639920  25.5335300   7.4043060  16.2055470  26.9807780   7.3555090
  11.8535580  19.9505010   7.0556910  12.4251690  19.1827210   7.0560550
  11.8537120  20.2493770   6.1463520  21.7115530  28.7695860   4.9102180
  21.0926970  29.2253360   4.3396620  22.5667310  28.9247320   4.5091880
  20.9053780  24.7534850   6.5169220  20.8362060  23.8124790   6.3558350
  21.6673640  24.8436260   7.0891790  13.0960450  15.3589370   8.8425840
  12.9163290  14.4615120   9.1228600  12.6940530  15.9061240   9.5172790
  21.9358950  17.5605230   6.7438150  22.3123770  16.6877110   6.6311820
  21.8378460  17.8963930   5.8528590  16.0663960  15.9330860   2.2055590
  16.1730710  16.8334590   2.5124350  15.1556320  15.8848830   1.9150240
  25.7183070  15.0555670   3.6766490  26.5392690  14.5652240   3.7191970
  25.7517150  15.6453330   4.4298330  13.7147120  17.8549870   7.4508180
  14.3957230  18.1188240   8.0695580  13.3995170  17.0150740   7.7846190
  17.9071690  18.9017230   6.5380770  18.4149910  19.3998200   7.1785790
  18.4384930  18.1252430   6.3620130  30.0082620  17.0722420  10.2410120
  29.3034790  17.4604130   9.7225230  30.2740540  17.7672710  10.8431050
  16.1907790  13.5415790  10.8044190  16.1926230  14.0588180   9.9990090
  15.3612100  13.0645970  10.7814120  22.5778880  23.6535100   2.3034090
  21.9596150  24.1184550   1.7396810  23.0902130  24.3462580   2.7203600
  17.4410640  23.1810970   8.9817690  17.1080020  23.8079890   9.6238760
  17.6177320  23.7072850   8.2019360  25.9544550  16.9956050   6.4494030
  25.2500120  17.2840940   7.0297140  26.3156710  17.8056160   6.0893590
  15.8723120  15.2525750   8.8114640  16.2139930  16.0967800   8.5168510
  14.9338930  15.4009490   8.9279980  16.6529740  25.1491770  10.7966870
  17.2703740  25.8242850  10.5151320  15.7922860  25.5579750  10.7054370
  27.5707330  26.6131180   8.7121510  26.8870850  27.2830290   8.7038180
  28.1101620  26.8111830   7.9466370  29.0231470  16.4410840   6.8403240
  28.0756380  16.4749820   6.9718670  29.3481460  17.2549790   7.2252600
  19.5551010  12.7408020   5.1359230  19.8625990  12.1854910   4.4194730
  18.6251710  12.8752480   4.9532220  25.1066070  28.4575310   7.4266690
  25.1193230  28.0537600   6.5588950  24.5541290  29.2322600   7.3228120
  26.4011490  25.1791530   2.5156860  26.2907820  24.2365860   2.6406280
  26.3979740  25.5407170   3.4019620  24.5051510  23.3605150   8.7549300
  24.9220300  23.1465260   7.9202760  25.2291330  23.6177940   9.3257920
  21.9431770  20.8056850   1.8719350  21.0161050  20.7394230   2.1007820
  22.0956590  21.7436980   1.7574590  28.4513610  21.7592370   8.8465540
  27.6232240  21.8285460   8.3715670  29.0464090  22.3446680   8.3781370
  25.9729060  22.3677150   2.3754600  25.3541480  22.0296700   1.7280900
  25.9553510  21.7236910   3.0833790  25.4155620  18.5461690   9.7920410
  25.0026800  19.3715400  10.0460400  24.6831570  17.9606730   9.5996770
  17.5488410  21.3321590   4.6539080  17.1445410  20.6198840   4.1584980
  17.6351530  20.9874830   5.5427120  18.0170110  25.0189150   6.8178290
  17.7198400  24.4134620   6.1386070  18.9669930  25.0566460   6.7067650
  16.2617030  18.1064800   8.4338120  16.8131620  18.2160140   7.6591370
  16.7760540  18.4802400   9.1493350  26.1055720  28.5921020  10.4801390
  25.6286280  29.3993210  10.2874000  25.4217510  27.9399350  10.6327600
  17.1088540  24.7570840  13.4686090  16.2117070  24.9810810  13.7159490
  17.1341410  24.8805780  12.5197490  15.9359760  21.6284160  12.0443460
  15.7967530  22.5006960  12.4130860  15.0541120  21.2856970  11.8991400
  22.2589140  26.5460030   3.3508590  22.6985050  27.2884360   2.9363980
  22.1976030  26.7886600   4.2747550  17.7340110  27.5705860  14.2528610
  17.7055540  27.9748810  13.3857040  17.5705080  26.6416220  14.0900210
  14.2493040  20.2266570   2.1545730  14.1290640  20.9528660   1.5427000
  13.9393930  19.4569480   1.6773640  29.6854930  28.3532960  15.5492780
  30.1614650  28.8315850  16.2281860  30.3062090  28.2850450  14.8238280
  11.8878410  23.3981710   7.9614370  11.9658830  23.5330480   7.0170090
  12.5020090  22.6897600   8.1542490  13.1326040  25.0981900   4.3720550
  12.7254120  25.2396490   3.5174150  14.0239050  24.8142060   4.1691760
  29.0888180  25.5445810  12.7092790  29.2151240  25.3057690  11.7909970
  29.1309560  24.7130350  13.1814870  22.9504920  29.2473810  11.2787600
  23.4649590  29.1581820  12.0810030  22.1074000  29.5933510  11.5715510
  17.4047700  29.3127680   2.4843220  17.2290180  28.3963220   2.2711020
  16.5503440  29.6714970   2.7241020  24.1935380  28.6679420   3.3418090
  24.6492330  27.8868800   3.6556710  24.5327900  29.3786240   3.8859270
  28.9412190  17.5978270  13.6742530  28.3256460  18.1057940  13.1457990
  28.6208610  16.6976600  13.6168470  11.9437930  24.4395880  10.5008830
  12.1068970  23.9701240   9.6828200  12.4090380  23.9319440  11.1657670
  16.7156700  13.5701640   5.5369400  16.2724850  14.3511180   5.2053920
  17.2741690  13.8931530   6.2440340  21.0026510  16.4370160  11.1404720
  20.5405880  16.6453180  11.9524660  20.6004620  15.6229510  10.8375390
  26.0031020  17.6579110  12.2701380  25.1524610  17.3584860  12.5910450
  25.8432810  17.9021120  11.3585200  23.0980730  19.1580860  14.3700170
  23.4234140  18.3244610  14.0302400  23.8861060  19.6809380  14.5178500
  18.7532600  14.1148970   7.3959000  19.0504930  15.0211800   7.3151020
  19.3018160  13.6267750   6.7818570  16.5070920  18.6935210   3.2650650
  16.2811840  18.4772380   4.1697270  15.7263450  19.1263670   2.9196620
  18.9470130  19.5920790  13.9310920  18.8513730  18.6515520  13.7811320
  19.7902110  19.8135860  13.5358990  22.3433550  17.3362120   3.8944580
  22.7363120  17.6534320   3.0813270  22.7050400  16.4574000   4.0089100
  14.0780670  16.0034460  12.0844700  13.6844060  16.8509670  12.2917480
  13.3899070  15.3660830  12.2753340  20.6525720  16.0869430  15.1541440
  19.9624040  15.8941630  15.7887530  21.3958020  16.3704070  15.6865740
  11.3797720  13.9262920   6.1174780  11.0910770  14.4965780   6.8299760
  12.1243480  13.4467370   6.4806010  22.9288690  19.9267870   7.9895360
  22.1969810  20.4354680   8.3385460  22.5313030  19.1097850   7.6884140
  19.3666080  16.6022070   6.3947850  19.3702140  16.1612020   5.5452390
  20.2617200  16.9239400   6.5019670  15.2168460  16.4848560   5.3542060
  14.8768510  16.9623790   6.1109110  14.4545780  16.0313680   4.9943160
  23.3914600  15.3801550   7.4018300  23.4087340  15.8310200   8.2460150
  23.1430180  14.4807190   7.6151740  26.8185350  12.7933730  13.2404680
  27.1431120  12.0623390  13.7662660  26.8541860  12.4747370  12.3385670
  13.5176910  23.8147310  12.6604640  13.1331700  23.1740980  13.2587600
  13.8289100  24.5183430  13.2299370  19.6674050  20.6623850   8.1413260
  20.0344180  20.1882420   8.8874600  19.4779110  21.5365420   8.4821600
  12.5314540  15.4067540   4.2706730  12.2461460  15.0423210   5.1085350
  12.4693400  14.6748000   3.6569870  17.4573420  19.7032490  10.4597470
  17.1530490  20.5824470  10.6847830  18.4119880  19.7632280  10.4954910
  26.7443190  22.9058840   6.8490710  27.4642310  23.4014130   6.4586820
  26.5425010  22.2276730   6.2044580  22.1261990  22.9767900  12.7359710
  22.0599300  22.0563570  12.4817300  21.4967130  23.0743340  13.4504350
  16.0292610  23.5773860   4.6943130  16.5471280  22.7742120   4.6400020
  15.5776630  23.5153000   5.5359960  13.5137150  20.5435230  11.6068830
  13.1552090  21.2089080  12.1942170  13.2191710  19.7118780  11.9781450
  16.7150270  21.0019470  14.4908380  16.4150410  21.1476650  13.5936200
  17.4861510  20.4424760  14.3981770  22.0578720  25.7988470  12.4863510
  22.0723260  24.8669430  12.2682420  21.3503820  25.8848230  13.1253280
  28.2689930  22.4395810  11.8332090  27.5438120  23.0324590  11.6361480
  28.7965390  22.4319350  11.0345460  23.7989520  24.1655980   5.3315940
  24.1513340  23.5684110   4.6717310  22.9151850  23.8400210   5.5024190
  19.8852800  24.9253670   2.7386350  20.5723930  25.4722880   3.1193940
  19.0985220  25.4694400   2.7735960  19.1880010  21.9299700   2.3511710
  19.6442790  22.7404950   2.5771900  18.8368220  21.6122840   3.1830200
  21.4912620  27.4406040   9.5804010  22.1354840  27.6465420  10.2577430
  21.8542060  26.6794440   9.1274860  15.0891790  12.2737350   2.8234230
  14.9606420  12.2655250   3.7719150  14.2653810  12.6120440   2.4725240
  22.7644700  25.4438390   8.2981460  23.4066930  24.7431550   8.4113630
  23.2894050  26.2236830   8.1178350  24.5382320  26.2433290  11.5017520
  24.8738560  26.8299980  12.1795440  23.6182660  26.1126000  11.7315310
  12.0885720  14.0328470  12.2840930  11.3744240  14.2325390  12.8893540
  12.5080760  13.2568040  12.6555730  12.3758310  28.0208730  13.2707460
  12.4849430  27.0803470  13.1302850  11.7238870  28.2863480  12.6221190
  20.3670900  26.2924620  14.6705580  20.0467770  25.5733860  15.2151270
  19.6929260  26.9679690  14.7441640  23.5824500  16.5250780  10.0342380
  23.9505320  15.7045990  10.3621950  22.7222700  16.5852670  10.4498030
  18.9170560  17.7593670   2.2587820  18.2086710  18.2280010   2.7001430
  19.2015040  17.1015680   2.8933010  20.5426490  19.1790370  10.2580350
  21.0411740  19.6536190  10.9232200  20.6849440  18.2553890  10.4650380
  22.9485990  14.4844330   3.6983610  22.8253770  14.5030460   2.7493120
  23.8970550  14.5323270   3.8182010  20.0362780  29.7199630   2.9711590
  20.2904280  29.6821020   2.0490960  19.0875260  29.5932960   2.9639840
  27.7493350  15.3958330  11.1008740  27.2466950  16.1363730  11.4402550
  28.5650010  15.7842330  10.7845530  26.0415360  20.6391510   4.5470100
  25.1005500  20.6541740   4.7217790  26.3559430  19.8527470   4.9930400
  28.0440940  27.8100360   6.2224360  28.1688360  28.6331530   6.6948170
  28.9106500  27.5991090   5.8748510  15.5158470  29.9031570   5.8941490
  16.2520950  29.3547030   6.1650060  15.8999390  30.7687580   5.7547480
  12.4003950  25.9705140   1.7683000  11.4743730  26.2126280   1.7588410
  12.8660380  26.7979400   1.6467750  14.5216750  29.0877640  15.0827070
  15.3229480  29.4089690  15.4962470  14.0068570  28.7273220  15.8046980
  23.3581380  25.1957510  15.0302480  22.7519540  25.2189110  14.2898230
  23.0535490  24.4640550  15.5669730  24.7881750  28.9237800  13.6411890
  25.7403500  28.8395820  13.5912130  24.6409970  29.5879510  14.3145680
  12.2414560  21.5751100  14.0263120  12.7453580  20.9958380  14.5979350
  11.5021980  21.8591330  14.5639490  19.2952500  22.9822090  13.5598640
  18.5298170  23.5507090  13.4753310  19.4768460  22.6898300  12.6666870
  26.4375850  24.7127420  14.1173660  27.1785320  25.0503180  13.6141120
  25.6748530  24.8819480  13.5643430  14.2737640  19.7180690  14.9213190
  14.3142980  19.4194560  15.8298420  15.1283140  20.1188300  14.7620710
  16.2143450  18.2972790  12.8887680  15.6839910  17.8063740  12.2611020
  16.8831520  18.7256990  12.3545610  25.1121510  22.7642250  12.6528870
  25.5262530  22.9187330  13.5019290  24.1772510  22.8897470  12.8154650
  25.5843680  20.1038410  14.6568020  26.1664450  19.3490730  14.5688500
  25.7605450  20.6345850  13.8799500  16.7015750  15.2635160  12.9684970
  16.6072620  14.6455910  12.2435840  16.1213140  15.9901450  12.7414880
  19.4677190  13.8208400  10.0012360  19.0194490  13.8432660   9.1557910
  18.8342390  13.4227420  10.5982660  19.8736740  22.7162730  10.6224800
  20.2924850  23.5595460  10.4501040  18.9545370  22.8534770  10.3931580
  22.2100640  20.4478910  12.0062640  22.3296850  19.8520050  12.7457480
  23.0694640  20.4848600  11.5863940  24.5488540  21.0016100  10.5825150
  24.0223760  21.5258720   9.9790290  24.8919880  21.6343490  11.2134880
  17.7244160  29.0215740  11.7382530  17.1865250  29.7461800  11.4191230
  17.9778120  28.5446080  10.9479870  18.9769410  16.9900260  13.2638460
  19.5669100  16.6816110  13.9516280  18.1589650  16.5180010  13.4198360
  23.7962840  16.6066070  13.4971480  23.1078360  15.9447610  13.4321470
  24.5168860  16.1604340  13.9419940  20.5806370  30.2566950  11.9969180
  20.5065070  31.1602090  12.3041550  19.6785210  29.9378850  11.9691250
  11.9833660  27.5841540   5.3002800  12.3136670  26.7162600   5.0681440
  12.4124660  27.7900060   6.1307760  16.5795580  25.9150550   2.9604770
  16.2791120  25.7915520   3.8608680  16.4733070  25.0559140   2.5520500
  12.4723870  28.4512130   8.0384430  12.0354860  28.6312930   8.8708580
  13.0401550  29.2086750   7.8966150  28.1086050  27.9529130  12.3261740
  27.5088040  28.0121690  11.5825660  28.2379950  27.0134110  12.4558590
  12.3048300  20.9632360   4.3973310  11.6497140  20.6944000   3.7533010
  13.1426250  20.8536840   3.9475290  29.8103930  23.2944530   5.0107580
  30.1812760  22.5111850   4.6043550  30.4505860  23.9833630   4.8324880
  26.7937690  24.6781110  10.4237900  25.9797530  25.1078270  10.6863690
  27.2011890  25.2899520   9.8106950  28.7528470  20.6697790   2.3167600
  28.3772070  19.9025720   1.8848890  28.0231590  21.0520490   2.8042530
  13.3424230  21.3484930   8.9376650  13.7097270  21.2612330   9.8172670
  12.7735050  20.5851480   8.8383510  28.1428090  19.8169310  11.9507120
  27.9114180  19.5882060  11.0505070  28.4032640  20.7368860  11.9052010
  12.8940230  18.2594020  12.8435070  11.9996280  18.2260780  13.1828780
  13.4337780  18.4580810  13.6086320  26.5816160  15.0425740  14.7286820
  27.4586340  15.0509140  15.1120820  26.5937000  14.3056580  14.1179170
  28.0279430  18.8955280   5.6174840  28.5516910  18.4017930   4.9865010
  28.6138850  19.0305640   6.3622410  28.2069150  18.9795150   9.1394390
  27.2571860  18.9458690   9.2539380  28.3882160  19.8895260   8.9044160
  13.3979940  12.5342350   7.1918290  14.0456130  11.9839730   6.7513450
  13.8181780  12.7885500   8.0134100  28.9466560  16.7889580   4.0904930
  28.8365840  16.6345620   5.0287200  29.7074150  16.2610520   3.8480340
  27.2932280  12.7283710  10.5487930  27.9304500  13.3417850  10.9147120
  27.4407170  12.7644370   9.6037160  26.8513740  29.4299710   3.9506170
  27.4472810  29.1084280   3.2740590  27.1091890  28.9571530   4.7419440
  13.1511940  12.6898020   9.9343610  12.8026760  13.1461840  10.7001790
  12.8199640  11.7955150  10.0166040  14.7576310  25.8617620  14.0996800
  14.7145940  25.4910530  14.9811260  14.8887320  26.7995190  14.2398620
  18.4582340  27.4177210   9.7006520  18.2173700  27.6851770   8.8137040
  19.3984980  27.5882940   9.7557380  20.6636760  13.8809900  13.4563030
  20.6025650  14.4731730  14.2058440  21.6037140  13.7735860  13.3113290
  23.3011320  13.5379960  13.0955320  23.9151730  13.8559250  12.4336400
  23.8460880  13.0528550  13.7151180  29.7186500  29.4371590  10.5017160
  29.2244780  29.8340460   9.7844290  29.1099790  28.8120800  10.8954440
  13.8232580  12.2174220  13.2094380  14.3715570  12.0362270  12.4460490
  13.8887890  11.4268330  13.7450690  14.5964340  28.8079870  11.2194580
  14.0024660  28.6764570  11.9584620  14.5888180  27.9718010  10.7536680
  24.0419360  12.1012100   9.4224610  23.1679200  12.4347210   9.2197540
  23.9330110  11.6285280  10.2476480  24.9491340  14.3082970  10.8066330
  24.6204700  13.4934730  10.4268060  25.8973640  14.2652780  10.6832020
  27.4025950  30.0795010   7.7803900  26.9428920  30.8310820   7.4061920
  26.7738410  29.3601480   7.7218700  14.2276570  26.1738250  10.1702620
  13.5010630  25.5543540  10.1028570  14.2885720  26.5678860   9.3000700
  17.8321670  28.3883250   6.9552030  18.3486690  27.7770610   6.4300290
  18.4819050  28.8912030   7.4463040  20.5717170  29.2791740   7.7821010
  20.8594980  29.0246040   6.9054020  21.0840390  28.7269100   8.3726580
  21.7894180  13.0181940   8.3617520  21.0065970  13.4927440   8.6414280
  21.4957110  12.1136770   8.2530700  26.3415250  13.7205040   6.4066610
  26.7823340  13.6650140   5.5588210  26.0722840  14.6363050   6.4776790
  28.2053820  13.3520280   4.4175430  28.1442220  12.4081500   4.2706450
  28.9845850  13.4600370   4.9628890  12.5106570  29.4912640   3.3799380
  12.3428610  28.8583320   4.0781270  11.6441080  29.6972040   3.0293570
  19.6748400  15.4368690   3.8733550  18.8622910  15.0625580   3.5329430
  20.1790040  14.6813770   4.1754740  24.1773380  12.1011140   5.1116620
  24.7802750  12.6731350   5.5865140  23.4366370  12.6650580   4.8890520
  17.6997580  13.5868610   2.4778600  17.0700320  12.8855920   2.6448730
  17.1602720  14.3472740   2.2611760  20.6389530  30.2007840  15.1489210
  21.5656840  29.9652110  15.1925170  20.6239960  31.0279840  14.6675240
  28.8734590  29.7433410   2.1463460  29.0486780  29.0571150   1.5024380
  28.1756160  30.2680460   1.7540130  17.8253140  12.8652590  14.9131090
  17.5437410  13.3686190  14.1491910  18.2072840  12.0674340  14.5473220
  24.4268600  12.2806170  15.4911560  24.3134050  12.6000780  16.3863080
  25.2438340  12.6818680  15.1948840  27.2067090  29.4277700  14.9730250
  27.9992410  28.9326930  14.7656210  27.5000240  30.1067840  15.5805860
  21.4644790   3.3034170  81.6073020  20.6886890   2.8234610  81.8971590
  22.1157720   2.6239820  81.4329180  15.4810620   3.6153980  82.4848780
  14.6495500   3.3602690  82.8845290  16.0891600   3.6864750  83.2206700
  25.4852220   7.7094360  80.3872150  25.0233750   6.9381600  80.7159320
  26.2977770   7.7360430  80.8924600  15.4611880   7.6494070  82.6806800
  15.7639920   6.7591810  82.5017020  16.2055470   8.2064290  82.4529050
  21.7115530   9.9952370  80.0076140  21.0926970  10.4509870  79.4370580
  22.5667310  10.1503830  79.6065840  20.9053780   5.9791360  81.6143180
  20.8362060   5.0381300  81.4532310  21.6673640   6.0692770  82.1865750
  22.5778880   4.8791610  77.4008050  21.9596150   5.3441060  76.8370770
  23.0902130   5.5719090  77.8177560  17.4410640   4.4067480  84.0791650
  17.1080020   5.0336400  84.7212720  17.6177320   4.9329360  83.2993320
  16.6529740   6.3748280  85.8940830  17.2703740   7.0499360  85.6125280
  15.7922860   6.7836260  85.8028330  11.9462080   5.5648140  74.7747680
  11.5690060   6.0535240  74.0432580  12.2035150   6.2373420  75.4054210
  27.5707330   7.8387690  83.8095470  26.8870850   8.5086800  83.8012140
  28.1101620   8.0368340  83.0440330  25.1066070   9.6831820  82.5240650
  25.1193230   9.2794110  81.6562910  24.5541290  10.4579110  82.4202080
  26.4011490   6.4048040  77.6130820  26.2907820   5.4622370  77.7380240
  26.3979740   6.7663680  78.4993580  24.5051510   4.5861660  83.8523260
  24.9220300   4.3721770  83.0176720  25.2291330   4.8434450  84.4231880
  21.9431770   2.0313360  76.9693310  21.0161050   1.9650740  77.1981780
  22.0956590   2.9693490  76.8548550  28.4513610   2.9848880  83.9439500
  27.6232240   3.0541970  83.4689630  29.0464090   3.5703190  83.4755330
  25.9729060   3.5933660  77.4728560  25.3541480   3.2553210  76.8254860
  25.9553510   2.9493420  78.1807750  17.5488410   2.5578100  79.7513040
  17.1445410   1.8455350  79.2558940  17.6351530   2.2131340  80.6401080
  18.0170110   6.2445660  81.9152250  17.7198400   5.6391130  81.2360030
  18.9669930   6.2822970  81.8041610  26.1055720   9.8177530  85.5775350
  25.6286280  10.6249720  85.3847960  25.4217510   9.1655860  85.7301560
  24.1493760   2.8320470  74.4801310  24.5887040   1.9942900  74.3339130
  24.8622180   3.4649870  74.5665450  22.2589140   7.7716540  78.4482550
  22.6985050   8.5140870  78.0337940  22.1976030   8.0143110  79.3721510
  11.8878410   4.6238220  83.0588330  11.9658830   4.7586990  82.1144050
  12.5020090   3.9154110  83.2516450  13.1326040   6.3238410  79.4694510
  12.7254120   6.4653000  78.6148110  14.0239050   6.0398570  79.2665720
  24.9259320  10.7585660  75.8045560  24.7660460  10.4688600  76.7027390
  24.7606030   9.9825790  75.2690790  17.4047700  10.5384190  77.5817180
  17.2290180   9.6219730  77.3684980  16.5503440  10.8971480  77.8214980
  24.6285450   8.2673220  74.3643560  23.9350610   8.2650510  73.7045840
  25.3708310   7.8432540  73.9337730  24.1935380   9.8935930  78.4392050
  24.6492330   9.1125310  78.7530670  24.5327900  10.6042750  78.9833230
  11.9437930   5.6652390  85.5982790  12.1068970   5.1957750  84.7802160
  12.4090380   5.1575950  86.2631630  15.9855210   5.1349990  76.1538280
  15.2117470   4.5947610  75.9937000  16.7149840   4.6156600  75.8156040
  26.7443190   4.1315350  81.9464670  27.4642310   4.6270640  81.5560780
  26.5425010   3.4533240  81.3018540  16.0292610   4.8030370  79.7917090
  16.5471280   3.9998630  79.7373980  15.5776630   4.7409510  80.6333920
  20.9162110   6.0696650  75.0644390  21.2577810   6.8138880  74.5687710
  20.0874820   6.3827770  75.4269220  28.2203040   8.0627060  76.5818210
  27.5779200   7.4082680  76.8561930  27.8333700   8.4682150  75.8058880
  23.7989520   5.3912490  80.4289900  24.1513340   4.7940620  79.7691270
  22.9151850   5.0656720  80.5998150  19.8852800   6.1510180  77.8360310
  20.5723930   6.6979390  78.2167900  19.0985220   6.6950910  77.8709920
  12.0245200   1.7683000  73.3277390  12.8940050   2.0507800  73.6113310
  11.5335520   2.5818870  73.2126200  19.1880010   3.1556210  77.4485670
  19.6442790   3.9661460  77.6745860  18.8368220   2.8379350  78.2804160
  21.4912620   8.6662550  84.6777970  22.1354840   8.8721930  85.3551390
  21.8542060   7.9050950  84.2248820  22.7644700   6.6694900  83.3955420
  23.4066930   5.9688060  83.5087590  23.2894050   7.4493340  83.2152310
  26.6100420   6.9543520  73.1194560  26.3838000   6.2373960  73.7119200
  26.2196620   6.7055960  72.2816310  12.3916450  10.9810380  73.8939020
  12.7514090  11.5799720  73.2396290  12.2508790  11.5270270  74.6674050
  26.1916670   4.8715460  74.7808720  25.9038370   5.3328150  75.5686600
  26.9868840   4.4113230  75.0492940  18.4085070   8.3641580  74.7112690
  18.3995170   9.0971270  74.0957200  17.4883430   8.1173160  74.8039650
  14.0091710   3.5856470  75.4559450  13.4019660   4.3255370  75.4654750
  14.4841060   3.6755830  74.6297650  21.3944670   8.4269820  73.3737880
  21.4956650   8.2233810  72.4439860  20.4946410   8.1728100  73.5785660
  20.0362780  10.9456140  78.0685550  20.2904280  10.9077530  77.1464920
  19.0875260  10.8189470  78.0613800  16.0197000   3.5467620  73.2048020
  16.7860270   3.4348980  73.7673450  16.0971690   2.8505590  72.5524790
  28.0440940   9.0356870  81.3198320  28.1688360   9.8588040  81.7922130
  28.9106500   8.8247600  80.9722470  15.5158470  11.1288080  80.9915450
  16.2520950  10.5803540  81.2624020  15.8999390  11.9944090  80.8521440
  12.4003950   7.1961650  76.8656960  11.4743730   7.4382790  76.8562370
  12.8660380   8.0235910  76.7441710  18.6260780  10.3018390  72.8141020
  19.4189390  10.5907220  72.3622810  18.1065130   9.8710560  72.1353500
  27.6790950   9.5288520  74.2377760  27.3932460   9.1153660  73.4231940
  27.4810500  10.4576230  74.1178280  19.1438180   5.5221800  72.6783370
  19.0388820   4.9074150  73.4044750  18.9762400   4.9987690  71.8946380
  22.3840910   4.5841830  73.2825360  21.8351010   5.0311130  73.9268100
  23.0060170   4.0791080  73.8063030  18.0516030   3.5432750  75.1790660
  18.4732450   3.3772620  76.0222050  18.1766870   2.7332980  74.6845800
  20.5643670   2.5670360  72.4267760  21.0849330   1.8519380  72.0608910
  21.2112070   3.2056230  72.7268270  19.8736740   3.9419240  85.7198760
  20.2924850   4.7851970  85.5475000  18.9545370   4.0791280  85.4905540
  21.1291700  10.6481970  74.7169500  22.0242490  10.9866940  74.7388260
  21.1609330   9.9261380  74.0893780  14.7687860   6.0209020  72.9456500
  15.2062730   6.5638690  73.6014080  15.2535590   5.1955970  72.9552840
  11.9833660   8.8098050  80.3976760  12.3136670   7.9419110  80.1655400
  12.4124660   9.0156570  81.2281720  16.5795580   7.1407060  78.0578730
  16.2791120   7.0172030  78.9582640  16.4733070   6.2815650  77.6494460
  12.4723870   9.6768640  83.1358390  12.0354860   9.8569440  83.9682540
  13.0401550  10.4343260  82.9940110  29.3487500   6.9203460  72.7605410
  28.5180460   6.9880110  73.2312640  29.5259330   7.8107580  72.4572270
  28.8043960   3.6650940  75.2639610  29.5662870   4.2347590  75.3699300
  28.8198330   3.0978140  76.0347920  12.3048300   2.1888870  79.4947270
  11.6497140   1.9200510  78.8506970  13.1426250   2.0793350  79.0449250
  29.8103930   4.5201040  80.1081540  30.1812760   3.7368360  79.7017510
  30.4505860   5.2090140  79.9298840  26.7937690   5.9037620  85.5211860
  25.9797530   6.3334780  85.7837650  27.2011890   6.5156030  84.9080910
  28.8563130   3.9585310  72.4212130  29.1311970   4.8664190  72.2931350
  28.6673870   3.8947840  73.3574120  13.3424230   2.5741440  84.0350610
  13.7097270   2.4868840  84.9146630  12.7735050   1.8107990  83.9357470
  26.8513740  10.6556220  79.0480130  27.4472810  10.3340790  78.3714550
  27.1091890  10.1828040  79.8393400  18.4582340   8.6433720  84.7980480
  18.2173700   8.9108280  83.9111000  19.3984980   8.8139450  84.8531340
  29.7186500  10.6628100  85.5991120  29.2244780  11.0596970  84.8818250
  29.1099790  10.0377310  85.9928400  27.4025950  11.3051520  82.8777860
  26.9428920  12.0567330  82.5035880  26.7738410  10.5857990  82.8192660
  14.2276570   7.3994760  85.2676580  13.5010630   6.7800050  85.2002530
  14.2885720   7.7935370  84.3974660  17.8321670   9.6139760  82.0525990
  18.3486690   9.0027120  81.5274250  18.4819050  10.1168540  82.5437000
  20.5717170  10.5048250  82.8794970  20.8594980  10.2502550  82.0027980
  21.0840390   9.9525610  83.4700540  12.5106570  10.7169150  78.4773340
  12.3428610  10.0839830  79.1755230  11.6441080  10.9228550  78.1267530
  14.1169270   9.4102380  75.9223480  13.5916890   9.7910410  75.2185440
  14.0413850  10.0353150  76.6433190  28.8734590  10.9689920  77.2437420
  29.0486780  10.2827660  76.5998340  28.1756160  11.4936970  76.8514090
  16.7162240  11.3584760  74.7972730  17.4481060  11.0744040  74.2496620
  16.9755910  11.1198040  75.6872110  15.8777030   7.4749490  74.8019060
  15.2485910   7.9434590  75.3504890  15.9924860   6.6298710  75.2365250
  21.4644790   3.3034170  62.8329530  20.6886890   2.8234610  63.1228100
  22.1157720   2.6239820  62.6585690  15.4810620   3.6153980  63.7105290
  14.6495500   3.3602690  64.1101800  16.0891600   3.6864750  64.4463210
  25.4852220   7.7094360  61.6128660  25.0233750   6.9381600  61.9415830
  26.2977770   7.7360430  62.1181110  15.4611880   7.6494070  63.9063310
  15.7639920   6.7591810  63.7273530  16.2055470   8.2064290  63.6785560
  21.7115530   9.9952370  61.2332650  21.0926970  10.4509870  60.6627090
  22.5667310  10.1503830  60.8322350  20.9053780   5.9791360  62.8399690
  20.8362060   5.0381300  62.6788820  21.6673640   6.0692770  63.4122260
  22.5778880   4.8791610  58.6264560  21.9596150   5.3441060  58.0627280
  23.0902130   5.5719090  59.0434070  17.4410640   4.4067480  65.3048160
  17.1080020   5.0336400  65.9469230  17.6177320   4.9329360  64.5249830
  16.6529740   6.3748280  67.1197340  17.2703740   7.0499360  66.8381790
  15.7922860   6.7836260  67.0284840  11.9462080   5.5648140  56.0004190
  11.5690060   6.0535240  55.2689090  12.2035150   6.2373420  56.6310720
  27.5707330   7.8387690  65.0351980  26.8870850   8.5086800  65.0268650
  28.1101620   8.0368340  64.2696840  25.1066070   9.6831820  63.7497160
  25.1193230   9.2794110  62.8819420  24.5541290  10.4579110  63.6458590
  26.4011490   6.4048040  58.8387330  26.2907820   5.4622370  58.9636750
  26.3979740   6.7663680  59.7250090  24.5051510   4.5861660  65.0779770
  24.9220300   4.3721770  64.2433230  25.2291330   4.8434450  65.6488390
  21.9431770   2.0313360  58.1949820  21.0161050   1.9650740  58.4238290
  22.0956590   2.9693490  58.0805060  28.4513610   2.9848880  65.1696010
  27.6232240   3.0541970  64.6946140  29.0464090   3.5703190  64.7011840
  25.9729060   3.5933660  58.6985070  25.3541480   3.2553210  58.0511370
  25.9553510   2.9493420  59.4064260  17.5488410   2.5578100  60.9769550
  17.1445410   1.8455350  60.4815450  17.6351530   2.2131340  61.8657590
  18.0170110   6.2445660  63.1408760  17.7198400   5.6391130  62.4616540
  18.9669930   6.2822970  63.0298120  26.1055720   9.8177530  66.8031860
  25.6286280  10.6249720  66.6104470  25.4217510   9.1655860  66.9558070
  17.1088540   5.9827350  69.7916560  16.2117070   6.2067320  70.0389960
  17.1341410   6.1062290  68.8427960  24.1493760   2.8320470  55.7057820
  24.5887040   1.9942900  55.5595640  24.8622180   3.4649870  55.7921960
  15.9359760   2.8540670  68.3673930  15.7967530   3.7263470  68.7361330
  15.0541120   2.5113480  68.2221870  22.2589140   7.7716540  59.6739060
  22.6985050   8.5140870  59.2594450  22.1976030   8.0143110  60.5978020
  17.7340110   8.7962370  70.5759080  17.7055540   9.2005320  69.7087510
  17.5705080   7.8672730  70.4130680  29.6854930   9.5789470  71.8723250
  30.1614650  10.0572360  72.5512330  30.3062090   9.5106960  71.1468750
  11.8878410   4.6238220  64.2844840  11.9658830   4.7586990  63.3400560
  12.5020090   3.9154110  64.4772960  13.1326040   6.3238410  60.6951020
  12.7254120   6.4653000  59.8404620  14.0239050   6.0398570  60.4922230
  29.0888180   6.7702320  69.0323260  29.2151240   6.5314200  68.1140440
  29.1309560   5.9386860  69.5045340  22.9504920  10.4730320  67.6018070
  23.4649590  10.3838330  68.4040500  22.1074000  10.8190020  67.8945980
  24.9259320  10.7585660  57.0302070  24.7660460  10.4688600  57.9283900
  24.7606030   9.9825790  56.4947300  17.4047700  10.5384190  58.8073690
  17.2290180   9.6219730  58.5941490  16.5503440  10.8971480  59.0471490
  24.6285450   8.2673220  55.5900070  23.9350610   8.2650510  54.9302350
  25.3708310   7.8432540  55.1594240  24.1935380   9.8935930  59.6648560
  24.6492330   9.1125310  59.9787180  24.5327900  10.6042750  60.2089740
  11.9437930   5.6652390  66.8239300  12.1068970   5.1957750  66.0058670
  12.4090380   5.1575950  67.4888140  13.5176910   5.0403820  68.9835110
  13.1331700   4.3997490  69.5818070  13.8289100   5.7439940  69.5529840
  15.9855210   5.1349990  57.3794790  15.2117470   4.5947610  57.2193510
  16.7149840   4.6156600  57.0412550  26.7443190   4.1315350  63.1721180
  27.4642310   4.6270640  62.7817290  26.5425010   3.4533240  62.5275050
  22.1261990   4.2024410  69.0590180  22.0599300   3.2820080  68.8047770
  21.4967130   4.2999850  69.7734820  16.0292610   4.8030370  61.0173600
  16.5471280   3.9998630  60.9630490  15.5776630   4.7409510  61.8590430
  20.9162110   6.0696650  56.2900900  21.2577810   6.8138880  55.7944220
  20.0874820   6.3827770  56.6525730  16.7150270   2.2275980  70.8138850
  16.4150410   2.3733160  69.9166670  17.4861510   1.6681270  70.7212240
  22.0578720   7.0244980  68.8093980  22.0723260   6.0925940  68.5912890
  21.3503820   7.1104740  69.4483750  28.2689930   3.6652320  68.1562560
  27.5438120   4.2581100  67.9591950  28.7965390   3.6575860  67.3575930
  28.2203040   8.0627060  57.8074720  27.5779200   7.4082680  58.0818440
  27.8333700   8.4682150  57.0315390  23.7989520   5.3912490  61.6546410
  24.1513340   4.7940620  60.9947780  22.9151850   5.0656720  61.8254660
  19.8852800   6.1510180  59.0616820  20.5723930   6.6979390  59.4424410
  19.0985220   6.6950910  59.0966430  12.0245200   1.7683000  54.5533900
  12.8940050   2.0507800  54.8369820  11.5335520   2.5818870  54.4382710
  19.1880010   3.1556210  58.6742180  19.6442790   3.9661460  58.9002370
  18.8368220   2.8379350  59.5060670  21.4912620   8.6662550  65.9034480
  22.1354840   8.8721930  66.5807900  21.8542060   7.9050950  65.4505330
  22.7644700   6.6694900  64.6211930  23.4066930   5.9688060  64.7344100
  23.2894050   7.4493340  64.4408820  26.6100420   6.9543520  54.3451070
  26.3838000   6.2373960  54.9375710  26.2196620   6.7055960  53.5072820
  24.5382320   7.4689800  67.8247990  24.8738560   8.0556490  68.5025910
  23.6182660   7.3382510  68.0545780  12.3916450  10.9810380  55.1195530
  12.7514090  11.5799720  54.4652800  12.2508790  11.5270270  55.8930560
  26.1916670   4.8715460  56.0065230  25.9038370   5.3328150  56.7943110
  26.9868840   4.4113230  56.2749450  12.3758310   9.2465240  69.5937930
  12.4849430   8.3059980  69.4533320  11.7238870   9.5119990  68.9451660
  20.3670900   7.5181130  70.9936050  20.0467770   6.7990370  71.5381740
  19.6929260   8.1936200  71.0672110  18.4085070   8.3641580  55.9369200
  18.3995170   9.0971270  55.3213710  17.4883430   8.1173160  56.0296160
  14.0091710   3.5856470  56.6815960  13.4019660   4.3255370  56.6911260
  14.4841060   3.6755830  55.8554160  21.3944670   8.4269820  54.5994390
  21.4956650   8.2233810  53.6696370  20.4946410   8.1728100  54.8042170
  20.0362780  10.9456140  59.2942060  20.2904280  10.9077530  58.3721430
  19.0875260  10.8189470  59.2870310  16.0197000   3.5467620  54.4304530
  16.7860270   3.4348980  54.9929960  16.0971690   2.8505590  53.7781300
  28.0440940   9.0356870  62.5454830  28.1688360   9.8588040  63.0178640
  28.9106500   8.8247600  62.1978980  15.5158470  11.1288080  62.2171960
  16.2520950  10.5803540  62.4880530  15.8999390  11.9944090  62.0777950
  12.4003950   7.1961650  58.0913470  11.4743730   7.4382790  58.0818880
  12.8660380   8.0235910  57.9698220  14.5216750  10.3134150  71.4057540
  15.3229480  10.6346200  71.8192940  14.0068570   9.9529730  72.1277450
  18.6260780  10.3018390  54.0397530  19.4189390  10.5907220  53.5879320
  18.1065130   9.8710560  53.3610010  23.3581380   6.4214020  71.3532950
  22.7519540   6.4445620  70.6128700  23.0535490   5.6897060  71.8900200
  24.7881750  10.1494310  69.9642360  25.7403500  10.0652330  69.9142600
  24.6409970  10.8136020  70.6376150  27.6790950   9.5288520  55.4634270
  27.3932460   9.1153660  54.6488450  27.4810500  10.4576230  55.3434790
  12.2414560   2.8007610  70.3493590  12.7453580   2.2214890  70.9209820
  11.5021980   3.0847840  70.8869960  19.1438180   5.5221800  53.9039880
  19.0388820   4.9074150  54.6301260  18.9762400   4.9987690  53.1202890
  19.2952500   4.2078600  69.8829110  18.5298170   4.7763600  69.7983780
  19.4768460   3.9154810  68.9897340  22.3840910   4.5841830  54.5081870
  21.8351010   5.0311130  55.1524610  23.0060170   4.0791080  55.0319540
  26.4375850   5.9383930  70.4404130  27.1785320   6.2759690  69.9371590
  25.6748530   6.1075990  69.8873900  18.0516030   3.5432750  56.4047170
  18.4732450   3.3772620  57.2478560  18.1766870   2.7332980  55.9102310
  20.5643670   2.5670360  53.6524270  21.0849330   1.8519380  53.2865420
  21.2112070   3.2056230  53.9524780  25.1121510   3.9898760  68.9759340
  25.5262530   4.1443840  69.8249760  24.1772510   4.1153980  69.1385120
  19.8736740   3.9419240  66.9455270  20.2924850   4.7851970  66.7731510
  18.9545370   4.0791280  66.7162050  24.5488540   2.2272610  66.9055620
  24.0223760   2.7515230  66.3020760  24.8919880   2.8600000  67.5365350
  17.7244160  10.2472250  68.0613000  17.1865250  10.9718310  67.7421700
  17.9778120   9.7702590  67.2710340  20.5806370  11.4823460  68.3199650
  20.5065070  12.3858600  68.6272020  19.6785210  11.1635360  68.2921720
  21.1291700  10.6481970  55.9426010  22.0242490  10.9866940  55.9644770
  21.1609330   9.9261380  55.3150290  14.7687860   6.0209020  54.1713010
  15.2062730   6.5638690  54.8270590  15.2535590   5.1955970  54.1809350
  11.9833660   8.8098050  61.6233270  12.3136670   7.9419110  61.3911910
  12.4124660   9.0156570  62.4538230  16.5795580   7.1407060  59.2835240
  16.2791120   7.0172030  60.1839150  16.4733070   6.2815650  58.8750970
  12.4723870   9.6768640  64.3614900  12.0354860   9.8569440  65.1939050
  13.0401550  10.4343260  64.2196620  28.1086050   9.1785640  68.6492210
  27.5088040   9.2378200  67.9056130  28.2379950   8.2390620  68.7789060
  29.3487500   6.9203460  53.9861920  28.5180460   6.9880110  54.4569150
  29.5259330   7.8107580  53.6828780  28.8043960   3.6650940  56.4896120
  29.5662870   4.2347590  56.5955810  28.8198330   3.0978140  57.2604430
  12.3048300   2.1888870  60.7203780  11.6497140   1.9200510  60.0763480
  13.1426250   2.0793350  60.2705760  29.8103930   4.5201040  61.3338050
  30.1812760   3.7368360  60.9274020  30.4505860   5.2090140  61.1555350
  26.7937690   5.9037620  66.7468370  25.9797530   6.3334780  67.0094160
  27.2011890   6.5156030  66.1337420  28.8563130   3.9585310  53.6468640
  29.1311970   4.8664190  53.5187860  28.6673870   3.8947840  54.5830630
  13.3424230   2.5741440  65.2607120  13.7097270   2.4868840  66.1403140
  12.7735050   1.8107990  65.1613980  26.8513740  10.6556220  60.2736640
  27.4472810  10.3340790  59.5971060  27.1091890  10.1828040  61.0649910
  14.7576310   7.0874130  70.4227270  14.7145940   6.7167040  71.3041730
  14.8887320   8.0251700  70.5629090  18.4582340   8.6433720  66.0236990
  18.2173700   8.9108280  65.1367510  19.3984980   8.8139450  66.0787850
  29.7186500  10.6628100  66.8247630  29.2244780  11.0596970  66.1074760
  29.1099790  10.0377310  67.2184910  14.5964340  10.0336380  67.5425050
  14.0024660   9.9021080  68.2815090  14.5888180   9.1974520  67.0767150
  27.4025950  11.3051520  64.1034370  26.9428920  12.0567330  63.7292390
  26.7738410  10.5857990  64.0449170  14.2276570   7.3994760  66.4933090
  13.5010630   6.7800050  66.4259040  14.2885720   7.7935370  65.6231170
  17.8321670   9.6139760  63.2782500  18.3486690   9.0027120  62.7530760
  18.4819050  10.1168540  63.7693510  20.5717170  10.5048250  64.1051480
  20.8594980  10.2502550  63.2284490  21.0840390   9.9525610  64.6957050
  12.5106570  10.7169150  59.7029850  12.3428610  10.0839830  60.4011740
  11.6441080  10.9228550  59.3524040  14.1169270   9.4102380  57.1479990
  13.5916890   9.7910410  56.4441950  14.0413850  10.0353150  57.8689700
  20.6389530  11.4264350  71.4719680  21.5656840  11.1908620  71.5155640
  20.6239960  12.2536350  70.9905710  28.8734590  10.9689920  58.4693930
  29.0486780  10.2827660  57.8254850  28.1756160  11.4936970  58.0770600
  16.7162240  11.3584760  56.0229240  17.4481060  11.0744040  55.4753130
  16.9755910  11.1198040  56.9128620  15.8777030   7.4749490  56.0275570
  15.2485910   7.9434590  56.5761400  15.9924860   6.6298710  56.4621760
  27.2067090  10.6534210  71.2960720  27.9992410  10.1583440  71.0886680
  27.5000240  11.3324350  71.9036330  21.4644790   3.3034170  44.0586040
  20.6886890   2.8234610  44.3484610  22.1157720   2.6239820  43.8842200
  15.4810620   3.6153980  44.9361800  14.6495500   3.3602690  45.3358310
  16.0891600   3.6864750  45.6719720  25.4852220   7.7094360  42.8385170
  25.0233750   6.9381600  43.1672340  26.2977770   7.7360430  43.3437620
  15.4611880   7.6494070  45.1319820  15.7639920   6.7591810  44.9530040
  16.2055470   8.2064290  44.9042070  21.7115530   9.9952370  42.4589160
  21.0926970  10.4509870  41.8883600  22.5667310  10.1503830  42.0578860
  20.9053780   5.9791360  44.0656200  20.8362060   5.0381300  43.9045330
  21.6673640   6.0692770  44.6378770  22.5778880   4.8791610  39.8521070
  21.9596150   5.3441060  39.2883790  23.0902130   5.5719090  40.2690580
  17.4410640   4.4067480  46.5304670  17.1080020   5.0336400  47.1725740
  17.6177320   4.9329360  45.7506340  16.6529740   6.3748280  48.3453850
  17.2703740   7.0499360  48.0638300  15.7922860   6.7836260  48.2541350
  11.9462080   5.5648140  37.2260700  11.5690060   6.0535240  36.4945600
  12.2035150   6.2373420  37.8567230  27.5707330   7.8387690  46.2608490
  26.8870850   8.5086800  46.2525160  28.1101620   8.0368340  45.4953350
  25.1066070   9.6831820  44.9753670  25.1193230   9.2794110  44.1075930
  24.5541290  10.4579110  44.8715100  26.4011490   6.4048040  40.0643840
  26.2907820   5.4622370  40.1893260  26.3979740   6.7663680  40.9506600
  24.5051510   4.5861660  46.3036280  24.9220300   4.3721770  45.4689740
  25.2291330   4.8434450  46.8744900  21.9431770   2.0313360  39.4206330
  21.0161050   1.9650740  39.6494800  22.0956590   2.9693490  39.3061570
  28.4513610   2.9848880  46.3952520  27.6232240   3.0541970  45.9202650
  29.0464090   3.5703190  45.9268350  25.9729060   3.5933660  39.9241580
  25.3541480   3.2553210  39.2767880  25.9553510   2.9493420  40.6320770
  17.5488410   2.5578100  42.2026060  17.1445410   1.8455350  41.7071960
  17.6351530   2.2131340  43.0914100  18.0170110   6.2445660  44.3665270
  17.7198400   5.6391130  43.6873050  18.9669930   6.2822970  44.2554630
  26.1055720   9.8177530  48.0288370  25.6286280  10.6249720  47.8360980
  25.4217510   9.1655860  48.1814580  17.1088540   5.9827350  51.0173070
  16.2117070   6.2067320  51.2646470  17.1341410   6.1062290  50.0684470
  24.1493760   2.8320470  36.9314330  24.5887040   1.9942900  36.7852150
  24.8622180   3.4649870  37.0178470  15.9359760   2.8540670  49.5930440
  15.7967530   3.7263470  49.9617840  15.0541120   2.5113480  49.4478380
  22.2589140   7.7716540  40.8995570  22.6985050   8.5140870  40.4850960
  22.1976030   8.0143110  41.8234530  17.7340110   8.7962370  51.8015590
  17.7055540   9.2005320  50.9344020  17.5705080   7.8672730  51.6387190
  29.6854930   9.5789470  53.0979760  30.1614650  10.0572360  53.7768840
  30.3062090   9.5106960  52.3725260  11.8878410   4.6238220  45.5101350
  11.9658830   4.7586990  44.5657070  12.5020090   3.9154110  45.7029470
  13.1326040   6.3238410  41.9207530  12.7254120   6.4653000  41.0661130
  14.0239050   6.0398570  41.7178740  29.0888180   6.7702320  50.2579770
  29.2151240   6.5314200  49.3396950  29.1309560   5.9386860  50.7301850
  22.9504920  10.4730320  48.8274580  23.4649590  10.3838330  49.6297010
  22.1074000  10.8190020  49.1202490  24.9259320  10.7585660  38.2558580
  24.7660460  10.4688600  39.1540410  24.7606030   9.9825790  37.7203810
  17.4047700  10.5384190  40.0330200  17.2290180   9.6219730  39.8198000
  16.5503440  10.8971480  40.2728000  24.6285450   8.2673220  36.8156580
  23.9350610   8.2650510  36.1558860  25.3708310   7.8432540  36.3850750
  24.1935380   9.8935930  40.8905070  24.6492330   9.1125310  41.2043690
  24.5327900  10.6042750  41.4346250  11.9437930   5.6652390  48.0495810
  12.1068970   5.1957750  47.2315180  12.4090380   5.1575950  48.7144650
  13.5176910   5.0403820  50.2091620  13.1331700   4.3997490  50.8074580
  13.8289100   5.7439940  50.7786350  15.9855210   5.1349990  38.6051300
  15.2117470   4.5947610  38.4450020  16.7149840   4.6156600  38.2669060
  26.7443190   4.1315350  44.3977690  27.4642310   4.6270640  44.0073800
  26.5425010   3.4533240  43.7531560  22.1261990   4.2024410  50.2846690
  22.0599300   3.2820080  50.0304280  21.4967130   4.2999850  50.9991330
  16.0292610   4.8030370  42.2430110  16.5471280   3.9998630  42.1887000
  15.5776630   4.7409510  43.0846940  20.9162110   6.0696650  37.5157410
  21.2577810   6.8138880  37.0200730  20.0874820   6.3827770  37.8782240
  16.7150270   2.2275980  52.0395360  16.4150410   2.3733160  51.1423180
  17.4861510   1.6681270  51.9468750  22.0578720   7.0244980  50.0350490
  22.0723260   6.0925940  49.8169400  21.3503820   7.1104740  50.6740260
  28.2689930   3.6652320  49.3819070  27.5438120   4.2581100  49.1848460
  28.7965390   3.6575860  48.5832440  28.2203040   8.0627060  39.0331230
  27.5779200   7.4082680  39.3074950  27.8333700   8.4682150  38.2571900
  23.7989520   5.3912490  42.8802920  24.1513340   4.7940620  42.2204290
  22.9151850   5.0656720  43.0511170  19.8852800   6.1510180  40.2873330
  20.5723930   6.6979390  40.6680920  19.0985220   6.6950910  40.3222940
  12.0245200   1.7683000  35.7790410  12.8940050   2.0507800  36.0626330
  11.5335520   2.5818870  35.6639220  19.1880010   3.1556210  39.8998690
  19.6442790   3.9661460  40.1258880  18.8368220   2.8379350  40.7317180
  21.4912620   8.6662550  47.1290990  22.1354840   8.8721930  47.8064410
  21.8542060   7.9050950  46.6761840  22.7644700   6.6694900  45.8468440
  23.4066930   5.9688060  45.9600610  23.2894050   7.4493340  45.6665330
  26.6100420   6.9543520  35.5707580  26.3838000   6.2373960  36.1632220
  26.2196620   6.7055960  34.7329330  24.5382320   7.4689800  49.0504500
  24.8738560   8.0556490  49.7282420  23.6182660   7.3382510  49.2802290
  12.3916450  10.9810380  36.3452040  12.7514090  11.5799720  35.6909310
  12.2508790  11.5270270  37.1187070  26.1916670   4.8715460  37.2321740
  25.9038370   5.3328150  38.0199620  26.9868840   4.4113230  37.5005960
  12.3758310   9.2465240  50.8194440  12.4849430   8.3059980  50.6789830
  11.7238870   9.5119990  50.1708170  20.3670900   7.5181130  52.2192560
  20.0467770   6.7990370  52.7638250  19.6929260   8.1936200  52.2928620
  18.4085070   8.3641580  37.1625710  18.3995170   9.0971270  36.5470220
  17.4883430   8.1173160  37.2552670  14.0091710   3.5856470  37.9072470
  13.4019660   4.3255370  37.9167770  14.4841060   3.6755830  37.0810670
  21.3944670   8.4269820  35.8250900  21.4956650   8.2233810  34.8952880
  20.4946410   8.1728100  36.0298680  20.0362780  10.9456140  40.5198570
  20.2904280  10.9077530  39.5977940  19.0875260  10.8189470  40.5126820
  16.0197000   3.5467620  35.6561040  16.7860270   3.4348980  36.2186470
  16.0971690   2.8505590  35.0037810  28.0440940   9.0356870  43.7711340
  28.1688360   9.8588040  44.2435150  28.9106500   8.8247600  43.4235490
  15.5158470  11.1288080  43.4428470  16.2520950  10.5803540  43.7137040
  15.8999390  11.9944090  43.3034460  12.4003950   7.1961650  39.3169980
  11.4743730   7.4382790  39.3075390  12.8660380   8.0235910  39.1954730
  14.5216750  10.3134150  52.6314050  15.3229480  10.6346200  53.0449450
  14.0068570   9.9529730  53.3533960  18.6260780  10.3018390  35.2654040
  19.4189390  10.5907220  34.8135830  18.1065130   9.8710560  34.5866520
  23.3581380   6.4214020  52.5789460  22.7519540   6.4445620  51.8385210
  23.0535490   5.6897060  53.1156710  24.7881750  10.1494310  51.1898870
  25.7403500  10.0652330  51.1399110  24.6409970  10.8136020  51.8632660
  27.6790950   9.5288520  36.6890780  27.3932460   9.1153660  35.8744960
  27.4810500  10.4576230  36.5691300  12.2414560   2.8007610  51.5750100
  12.7453580   2.2214890  52.1466330  11.5021980   3.0847840  52.1126470
  19.1438180   5.5221800  35.1296390  19.0388820   4.9074150  35.8557770
  18.9762400   4.9987690  34.3459400  19.2952500   4.2078600  51.1085620
  18.5298170   4.7763600  51.0240290  19.4768460   3.9154810  50.2153850
  22.3840910   4.5841830  35.7338380  21.8351010   5.0311130  36.3781120
  23.0060170   4.0791080  36.2576050  26.4375850   5.9383930  51.6660640
  27.1785320   6.2759690  51.1628100  25.6748530   6.1075990  51.1130410
  18.0516030   3.5432750  37.6303680  18.4732450   3.3772620  38.4735070
  18.1766870   2.7332980  37.1358820  20.5643670   2.5670360  34.8780780
  21.0849330   1.8519380  34.5121930  21.2112070   3.2056230  35.1781290
  25.1121510   3.9898760  50.2015850  25.5262530   4.1443840  51.0506270
  24.1772510   4.1153980  50.3641630  19.8736740   3.9419240  48.1711780
  20.2924850   4.7851970  47.9988020  18.9545370   4.0791280  47.9418560
  24.5488540   2.2272610  48.1312130  24.0223760   2.7515230  47.5277270
  24.8919880   2.8600000  48.7621860  17.7244160  10.2472250  49.2869510
  17.1865250  10.9718310  48.9678210  17.9778120   9.7702590  48.4966850
  20.5806370  11.4823460  49.5456160  20.5065070  12.3858600  49.8528530
  19.6785210  11.1635360  49.5178230  21.1291700  10.6481970  37.1682520
  22.0242490  10.9866940  37.1901280  21.1609330   9.9261380  36.5406800
  14.7687860   6.0209020  35.3969520  15.2062730   6.5638690  36.0527100
  15.2535590   5.1955970  35.4065860  11.9833660   8.8098050  42.8489780
  12.3136670   7.9419110  42.6168420  12.4124660   9.0156570  43.6794740
  16.5795580   7.1407060  40.5091750  16.2791120   7.0172030  41.4095660
  16.4733070   6.2815650  40.1007480  12.4723870   9.6768640  45.5871410
  12.0354860   9.8569440  46.4195560  13.0401550  10.4343260  45.4453130
  28.1086050   9.1785640  49.8748720  27.5088040   9.2378200  49.1312640
  28.2379950   8.2390620  50.0045570  29.3487500   6.9203460  35.2118430
  28.5180460   6.9880110  35.6825660  29.5259330   7.8107580  34.9085290
  28.8043960   3.6650940  37.7152630  29.5662870   4.2347590  37.8212320
  28.8198330   3.0978140  38.4860940  12.3048300   2.1888870  41.9460290
  11.6497140   1.9200510  41.3019990  13.1426250   2.0793350  41.4962270
  29.8103930   4.5201040  42.5594560  30.1812760   3.7368360  42.1530530
  30.4505860   5.2090140  42.3811860  26.7937690   5.9037620  47.9724880
  25.9797530   6.3334780  48.2350670  27.2011890   6.5156030  47.3593930
  28.8563130   3.9585310  34.8725150  29.1311970   4.8664190  34.7444370
  28.6673870   3.8947840  35.8087140  13.3424230   2.5741440  46.4863630
  13.7097270   2.4868840  47.3659650  12.7735050   1.8107990  46.3870490
  26.8513740  10.6556220  41.4993150  27.4472810  10.3340790  40.8227570
  27.1091890  10.1828040  42.2906420  14.7576310   7.0874130  51.6483780
  14.7145940   6.7167040  52.5298240  14.8887320   8.0251700  51.7885600
  18.4582340   8.6433720  47.2493500  18.2173700   8.9108280  46.3624020
  19.3984980   8.8139450  47.3044360  29.7186500  10.6628100  48.0504140
  29.2244780  11.0596970  47.3331270  29.1099790  10.0377310  48.4441420
  14.5964340  10.0336380  48.7681560  14.0024660   9.9021080  49.5071600
  14.5888180   9.1974520  48.3023660  27.4025950  11.3051520  45.3290880
  26.9428920  12.0567330  44.9548900  26.7738410  10.5857990  45.2705680
  14.2276570   7.3994760  47.7189600  13.5010630   6.7800050  47.6515550
  14.2885720   7.7935370  46.8487680  17.8321670   9.6139760  44.5039010
  18.3486690   9.0027120  43.9787270  18.4819050  10.1168540  44.9950020
  20.5717170  10.5048250  45.3307990  20.8594980  10.2502550  44.4541000
  21.0840390   9.9525610  45.9213560  12.5106570  10.7169150  40.9286360
  12.3428610  10.0839830  41.6268250  11.6441080  10.9228550  40.5780550
  14.1169270   9.4102380  38.3736500  13.5916890   9.7910410  37.6698460
  14.0413850  10.0353150  39.0946210  20.6389530  11.4264350  52.6976190
  21.5656840  11.1908620  52.7412150  20.6239960  12.2536350  52.2162220
  28.8734590  10.9689920  39.6950440  29.0486780  10.2827660  39.0511360
  28.1756160  11.4936970  39.3027110  16.7162240  11.3584760  37.2485750
  17.4481060  11.0744040  36.7009640  16.9755910  11.1198040  38.1385130
  15.8777030   7.4749490  37.2532080  15.2485910   7.9434590  37.8017910
  15.9924860   6.6298710  37.6878270  27.2067090  10.6534210  52.5217230
  27.9992410  10.1583440  52.3143190  27.5000240  11.3324350  53.1292840
  21.4644790   3.3034170  25.2842550  20.6886890   2.8234610  25.5741120
  22.1157720   2.6239820  25.1098710  15.4810620   3.6153980  26.1618310
  14.6495500   3.3602690  26.5614820  16.0891600   3.6864750  26.8976230
  25.4852220   7.7094360  24.0641680  25.0233750   6.9381600  24.3928850
  26.2977770   7.7360430  24.5694130  15.4611880   7.6494070  26.3576330
  15.7639920   6.7591810  26.1786550  16.2055470   8.2064290  26.1298580
  21.7115530   9.9952370  23.6845670  21.0926970  10.4509870  23.1140110
  22.5667310  10.1503830  23.2835370  20.9053780   5.9791360  25.2912710
  20.8362060   5.0381300  25.1301840  21.6673640   6.0692770  25.8635280
  22.5778880   4.8791610  21.0777580  21.9596150   5.3441060  20.5140300
  23.0902130   5.5719090  21.4947090  17.4410640   4.4067480  27.7561180
  17.1080020   5.0336400  28.3982250  17.6177320   4.9329360  26.9762850
  16.6529740   6.3748280  29.5710360  17.2703740   7.0499360  29.2894810
  15.7922860   6.7836260  29.4797860  11.9462080   5.5648140  18.4517210
  11.5690060   6.0535240  17.7202110  12.2035150   6.2373420  19.0823740
  27.5707330   7.8387690  27.4865000  26.8870850   8.5086800  27.4781670
  28.1101620   8.0368340  26.7209860  25.1066070   9.6831820  26.2010180
  25.1193230   9.2794110  25.3332440  24.5541290  10.4579110  26.0971610
  26.4011490   6.4048040  21.2900350  26.2907820   5.4622370  21.4149770
  26.3979740   6.7663680  22.1763110  24.5051510   4.5861660  27.5292790
  24.9220300   4.3721770  26.6946250  25.2291330   4.8434450  28.1001410
  21.9431770   2.0313360  20.6462840  21.0161050   1.9650740  20.8751310
  22.0956590   2.9693490  20.5318080  28.4513610   2.9848880  27.6209030
  27.6232240   3.0541970  27.1459160  29.0464090   3.5703190  27.1524860
  25.9729060   3.5933660  21.1498090  25.3541480   3.2553210  20.5024390
  25.9553510   2.9493420  21.8577280  17.5488410   2.5578100  23.4282570
  17.1445410   1.8455350  22.9328470  17.6351530   2.2131340  24.3170610
  18.0170110   6.2445660  25.5921780  17.7198400   5.6391130  24.9129560
  18.9669930   6.2822970  25.4811140  26.1055720   9.8177530  29.2544880
  25.6286280  10.6249720  29.0617490  25.4217510   9.1655860  29.4071090
  17.1088540   5.9827350  32.2429580  16.2117070   6.2067320  32.4902980
  17.1341410   6.1062290  31.2940980  24.1493760   2.8320470  18.1570840
  24.5887040   1.9942900  18.0108660  24.8622180   3.4649870  18.2434980
  15.9359760   2.8540670  30.8186950  15.7967530   3.7263470  31.1874350
  15.0541120   2.5113480  30.6734890  22.2589140   7.7716540  22.1252080
  22.6985050   8.5140870  21.7107470  22.1976030   8.0143110  23.0491040
  17.7340110   8.7962370  33.0272100  17.7055540   9.2005320  32.1600530
  17.5705080   7.8672730  32.8643700  29.6854930   9.5789470  34.3236270
  30.1614650  10.0572360  35.0025350  30.3062090   9.5106960  33.5981770
  11.8878410   4.6238220  26.7357860  11.9658830   4.7586990  25.7913580
  12.5020090   3.9154110  26.9285980  13.1326040   6.3238410  23.1464040
  12.7254120   6.4653000  22.2917640  14.0239050   6.0398570  22.9435250
  29.0888180   6.7702320  31.4836280  29.2151240   6.5314200  30.5653460
  29.1309560   5.9386860  31.9558360  22.9504920  10.4730320  30.0531090
  23.4649590  10.3838330  30.8553520  22.1074000  10.8190020  30.3459000
  24.9259320  10.7585660  19.4815090  24.7660460  10.4688600  20.3796920
  24.7606030   9.9825790  18.9460320  17.4047700  10.5384190  21.2586710
  17.2290180   9.6219730  21.0454510  16.5503440  10.8971480  21.4984510
  24.6285450   8.2673220  18.0413090  23.9350610   8.2650510  17.3815370
  25.3708310   7.8432540  17.6107260  24.1935380   9.8935930  22.1161580
  24.6492330   9.1125310  22.4300200  24.5327900  10.6042750  22.6602760
  11.9437930   5.6652390  29.2752320  12.1068970   5.1957750  28.4571690
  12.4090380   5.1575950  29.9401160  13.5176910   5.0403820  31.4348130
  13.1331700   4.3997490  32.0331090  13.8289100   5.7439940  32.0042860
  15.9855210   5.1349990  19.8307810  15.2117470   4.5947610  19.6706530
  16.7149840   4.6156600  19.4925570  26.7443190   4.1315350  25.6234200
  27.4642310   4.6270640  25.2330310  26.5425010   3.4533240  24.9788070
  22.1261990   4.2024410  31.5103200  22.0599300   3.2820080  31.2560790
  21.4967130   4.2999850  32.2247840  16.0292610   4.8030370  23.4686620
  16.5471280   3.9998630  23.4143510  15.5776630   4.7409510  24.3103450
  20.9162110   6.0696650  18.7413920  21.2577810   6.8138880  18.2457240
  20.0874820   6.3827770  19.1038750  16.7150270   2.2275980  33.2651870
  16.4150410   2.3733160  32.3679690  17.4861510   1.6681270  33.1725260
  22.0578720   7.0244980  31.2607000  22.0723260   6.0925940  31.0425910
  21.3503820   7.1104740  31.8996770  28.2689930   3.6652320  30.6075580
  27.5438120   4.2581100  30.4104970  28.7965390   3.6575860  29.8088950
  28.2203040   8.0627060  20.2587740  27.5779200   7.4082680  20.5331460
  27.8333700   8.4682150  19.4828410  23.7989520   5.3912490  24.1059430
  24.1513340   4.7940620  23.4460800  22.9151850   5.0656720  24.2767680
  19.8852800   6.1510180  21.5129840  20.5723930   6.6979390  21.8937430
  19.0985220   6.6950910  21.5479450  12.0245200   1.7683000  17.0046920
  12.8940050   2.0507800  17.2882840  11.5335520   2.5818870  16.8895730
  19.1880010   3.1556210  21.1255200  19.6442790   3.9661460  21.3515390
  18.8368220   2.8379350  21.9573690  21.4912620   8.6662550  28.3547500
  22.1354840   8.8721930  29.0320920  21.8542060   7.9050950  27.9018350
  22.7644700   6.6694900  27.0724950  23.4066930   5.9688060  27.1857120
  23.2894050   7.4493340  26.8921840  26.6100420   6.9543520  16.7964090
  26.3838000   6.2373960  17.3888730  26.2196620   6.7055960  15.9585840
  24.5382320   7.4689800  30.2761010  24.8738560   8.0556490  30.9538930
  23.6182660   7.3382510  30.5058800  12.3916450  10.9810380  17.5708550
  12.7514090  11.5799720  16.9165820  12.2508790  11.5270270  18.3443580
  26.1916670   4.8715460  18.4578250  25.9038370   5.3328150  19.2456130
  26.9868840   4.4113230  18.7262470  12.3758310   9.2465240  32.0450950
  12.4849430   8.3059980  31.9046340  11.7238870   9.5119990  31.3964680
  20.3670900   7.5181130  33.4449070  20.0467770   6.7990370  33.9894760
  19.6929260   8.1936200  33.5185130  18.4085070   8.3641580  18.3882220
  18.3995170   9.0971270  17.7726730  17.4883430   8.1173160  18.4809180
  14.0091710   3.5856470  19.1328980  13.4019660   4.3255370  19.1424280
  14.4841060   3.6755830  18.3067180  21.3944670   8.4269820  17.0507410
  21.4956650   8.2233810  16.1209390  20.4946410   8.1728100  17.2555190
  20.0362780  10.9456140  21.7455080  20.2904280  10.9077530  20.8234450
  19.0875260  10.8189470  21.7383330  16.0197000   3.5467620  16.8817550
  16.7860270   3.4348980  17.4442980  16.0971690   2.8505590  16.2294320
  28.0440940   9.0356870  24.9967850  28.1688360   9.8588040  25.4691660
  28.9106500   8.8247600  24.6492000  15.5158470  11.1288080  24.6684980
  16.2520950  10.5803540  24.9393550  15.8999390  11.9944090  24.5290970
  12.4003950   7.1961650  20.5426490  11.4743730   7.4382790  20.5331900
  12.8660380   8.0235910  20.4211240  14.5216750  10.3134150  33.8570560
  15.3229480  10.6346200  34.2705960  14.0068570   9.9529730  34.5790470
  18.6260780  10.3018390  16.4910550  19.4189390  10.5907220  16.0392340
  18.1065130   9.8710560  15.8123030  23.3581380   6.4214020  33.8045970
  22.7519540   6.4445620  33.0641720  23.0535490   5.6897060  34.3413220
  24.7881750  10.1494310  32.4155380  25.7403500  10.0652330  32.3655620
  24.6409970  10.8136020  33.0889170  27.6790950   9.5288520  17.9147290
  27.3932460   9.1153660  17.1001470  27.4810500  10.4576230  17.7947810
  12.2414560   2.8007610  32.8006610  12.7453580   2.2214890  33.3722840
  11.5021980   3.0847840  33.3382980  19.1438180   5.5221800  16.3552900
  19.0388820   4.9074150  17.0814280  18.9762400   4.9987690  15.5715910
  19.2952500   4.2078600  32.3342130  18.5298170   4.7763600  32.2496800
  19.4768460   3.9154810  31.4410360  22.3840910   4.5841830  16.9594890
  21.8351010   5.0311130  17.6037630  23.0060170   4.0791080  17.4832560
  26.4375850   5.9383930  32.8917150  27.1785320   6.2759690  32.3884610
  25.6748530   6.1075990  32.3386920  18.0516030   3.5432750  18.8560190
  18.4732450   3.3772620  19.6991580  18.1766870   2.7332980  18.3615330
  20.5643670   2.5670360  16.1037290  21.0849330   1.8519380  15.7378440
  21.2112070   3.2056230  16.4037800  25.1121510   3.9898760  31.4272360
  25.5262530   4.1443840  32.2762780  24.1772510   4.1153980  31.5898140
  19.8736740   3.9419240  29.3968290  20.2924850   4.7851970  29.2244530
  18.9545370   4.0791280  29.1675070  24.5488540   2.2272610  29.3568640
  24.0223760   2.7515230  28.7533780  24.8919880   2.8600000  29.9878370
  17.7244160  10.2472250  30.5126020  17.1865250  10.9718310  30.1934720
  17.9778120   9.7702590  29.7223360  20.5806370  11.4823460  30.7712670
  20.5065070  12.3858600  31.0785040  19.6785210  11.1635360  30.7434740
  21.1291700  10.6481970  18.3939030  22.0242490  10.9866940  18.4157790
  21.1609330   9.9261380  17.7663310  14.7687860   6.0209020  16.6226030
  15.2062730   6.5638690  17.2783610  15.2535590   5.1955970  16.6322370
  11.9833660   8.8098050  24.0746290  12.3136670   7.9419110  23.8424930
  12.4124660   9.0156570  24.9051250  16.5795580   7.1407060  21.7348260
  16.2791120   7.0172030  22.6352170  16.4733070   6.2815650  21.3263990
  12.4723870   9.6768640  26.8127920  12.0354860   9.8569440  27.6452070
  13.0401550  10.4343260  26.6709640  28.1086050   9.1785640  31.1005230
  27.5088040   9.2378200  30.3569150  28.2379950   8.2390620  31.2302080
  29.3487500   6.9203460  16.4374940  28.5180460   6.9880110  16.9082170
  29.5259330   7.8107580  16.1341800  28.8043960   3.6650940  18.9409140
  29.5662870   4.2347590  19.0468830  28.8198330   3.0978140  19.7117450
  12.3048300   2.1888870  23.1716800  11.6497140   1.9200510  22.5276500
  13.1426250   2.0793350  22.7218780  29.8103930   4.5201040  23.7851070
  30.1812760   3.7368360  23.3787040  30.4505860   5.2090140  23.6068370
  26.7937690   5.9037620  29.1981390  25.9797530   6.3334780  29.4607180
  27.2011890   6.5156030  28.5850440  28.8563130   3.9585310  16.0981660
  29.1311970   4.8664190  15.9700880  28.6673870   3.8947840  17.0343650
  13.3424230   2.5741440  27.7120140  13.7097270   2.4868840  28.5916160
  12.7735050   1.8107990  27.6127000  26.8513740  10.6556220  22.7249660
  27.4472810  10.3340790  22.0484080  27.1091890  10.1828040  23.5162930
  14.7576310   7.0874130  32.8740290  14.7145940   6.7167040  33.7554750
  14.8887320   8.0251700  33.0142110  18.4582340   8.6433720  28.4750010
  18.2173700   8.9108280  27.5880530  19.3984980   8.8139450  28.5300870
  29.7186500  10.6628100  29.2760650  29.2244780  11.0596970  28.5587780
  29.1099790  10.0377310  29.6697930  14.5964340  10.0336380  29.9938070
  14.0024660   9.9021080  30.7328110  14.5888180   9.1974520  29.5280170
  27.4025950  11.3051520  26.5547390  26.9428920  12.0567330  26.1805410
  26.7738410  10.5857990  26.4962190  14.2276570   7.3994760  28.9446110
  13.5010630   6.7800050  28.8772060  14.2885720   7.7935370  28.0744190
  17.8321670   9.6139760  25.7295520  18.3486690   9.0027120  25.2043780
  18.4819050  10.1168540  26.2206530  20.5717170  10.5048250  26.5564500
  20.8594980  10.2502550  25.6797510  21.0840390   9.9525610  27.1470070
  12.5106570  10.7169150  22.1542870  12.3428610  10.0839830  22.8524760
  11.6441080  10.9228550  21.8037060  14.1169270   9.4102380  19.5993010
  13.5916890   9.7910410  18.8954970  14.0413850  10.0353150  20.3202720
  20.6389530  11.4264350  33.9232700  21.5656840  11.1908620  33.9668660
  20.6239960  12.2536350  33.4418730  28.8734590  10.9689920  20.9206950
  29.0486780  10.2827660  20.2767870  28.1756160  11.4936970  20.5283620
  16.7162240  11.3584760  18.4742260  17.4481060  11.0744040  17.9266150
  16.9755910  11.1198040  19.3641640  15.8777030   7.4749490  18.4788590
  15.2485910   7.9434590  19.0274420  15.9924860   6.6298710  18.9134780
  27.2067090  10.6534210  33.7473740  27.9992410  10.1583440  33.5399700
  27.5000240  11.3324350  34.3549350  21.4644790   3.3034170   6.5099060
  20.6886890   2.8234610   6.7997630  22.1157720   2.6239820   6.3355220
  15.4810620   3.6153980   7.3874820  14.6495500   3.3602690   7.7871330
  16.0891600   3.6864750   8.1232740  25.4852220   7.7094360   5.2898190
  25.0233750   6.9381600   5.6185360  26.2977770   7.7360430   5.7950640
  15.4611880   7.6494070   7.5832840  15.7639920   6.7591810   7.4043060
  16.2055470   8.2064290   7.3555090  21.7115530   9.9952370   4.9102180
  21.0926970  10.4509870   4.3396620  22.5667310  10.1503830   4.5091880
  20.9053780   5.9791360   6.5169220  20.8362060   5.0381300   6.3558350
  21.6673640   6.0692770   7.0891790  22.5778880   4.8791610   2.3034090
  21.9596150   5.3441060   1.7396810  23.0902130   5.5719090   2.7203600
  17.4410640   4.4067480   8.9817690  17.1080020   5.0336400   9.6238760
  17.6177320   4.9329360   8.2019360  16.6529740   6.3748280  10.7966870
  17.2703740   7.0499360  10.5151320  15.7922860   6.7836260  10.7054370
  27.5707330   7.8387690   8.7121510  26.8870850   8.5086800   8.7038180
  28.1101620   8.0368340   7.9466370  25.1066070   9.6831820   7.4266690
  25.1193230   9.2794110   6.5588950  24.5541290  10.4579110   7.3228120
  26.4011490   6.4048040   2.5156860  26.2907820   5.4622370   2.6406280
  26.3979740   6.7663680   3.4019620  24.5051510   4.5861660   8.7549300
  24.9220300   4.3721770   7.9202760  25.2291330   4.8434450   9.3257920
  21.9431770   2.0313360   1.8719350  21.0161050   1.9650740   2.1007820
  22.0956590   2.9693490   1.7574590  28.4513610   2.9848880   8.8465540
  27.6232240   3.0541970   8.3715670  29.0464090   3.5703190   8.3781370
  25.9729060   3.5933660   2.3754600  25.3541480   3.2553210   1.7280900
  25.9553510   2.9493420   3.0833790  17.5488410   2.5578100   4.6539080
  17.1445410   1.8455350   4.1584980  17.6351530   2.2131340   5.5427120
  18.0170110   6.2445660   6.8178290  17.7198400   5.6391130   6.1386070
  18.9669930   6.2822970   6.7067650  26.1055720   9.8177530  10.4801390
  25.6286280  10.6249720  10.2874000  25.4217510   9.1655860  10.6327600
  17.1088540   5.9827350  13.4686090  16.2117070   6.2067320  13.7159490
  17.1341410   6.1062290  12.5197490  15.9359760   2.8540670  12.0443460
  15.7967530   3.7263470  12.4130860  15.0541120   2.5113480  11.8991400
  22.2589140   7.7716540   3.3508590  22.6985050   8.5140870   2.9363980
  22.1976030   8.0143110   4.2747550  17.7340110   8.7962370  14.2528610
  17.7055540   9.2005320  13.3857040  17.5705080   7.8672730  14.0900210
  29.6854930   9.5789470  15.5492780  30.1614650  10.0572360  16.2281860
  30.3062090   9.5106960  14.8238280  11.8878410   4.6238220   7.9614370
  11.9658830   4.7586990   7.0170090  12.5020090   3.9154110   8.1542490
  13.1326040   6.3238410   4.3720550  12.7254120   6.4653000   3.5174150
  14.0239050   6.0398570   4.1691760  29.0888180   6.7702320  12.7092790
  29.2151240   6.5314200  11.7909970  29.1309560   5.9386860  13.1814870
  22.9504920  10.4730320  11.2787600  23.4649590  10.3838330  12.0810030
  22.1074000  10.8190020  11.5715510  17.4047700  10.5384190   2.4843220
  17.2290180   9.6219730   2.2711020  16.5503440  10.8971480   2.7241020
  24.1935380   9.8935930   3.3418090  24.6492330   9.1125310   3.6556710
  24.5327900  10.6042750   3.8859270  11.9437930   5.6652390  10.5008830
  12.1068970   5.1957750   9.6828200  12.4090380   5.1575950  11.1657670
  13.5176910   5.0403820  12.6604640  13.1331700   4.3997490  13.2587600
  13.8289100   5.7439940  13.2299370  26.7443190   4.1315350   6.8490710
  27.4642310   4.6270640   6.4586820  26.5425010   3.4533240   6.2044580
  22.1261990   4.2024410  12.7359710  22.0599300   3.2820080  12.4817300
  21.4967130   4.2999850  13.4504350  16.0292610   4.8030370   4.6943130
  16.5471280   3.9998630   4.6400020  15.5776630   4.7409510   5.5359960
  16.7150270   2.2275980  14.4908380  16.4150410   2.3733160  13.5936200
  17.4861510   1.6681270  14.3981770  22.0578720   7.0244980  12.4863510
  22.0723260   6.0925940  12.2682420  21.3503820   7.1104740  13.1253280
  28.2689930   3.6652320  11.8332090  27.5438120   4.2581100  11.6361480
  28.7965390   3.6575860  11.0345460  23.7989520   5.3912490   5.3315940
  24.1513340   4.7940620   4.6717310  22.9151850   5.0656720   5.5024190
  19.8852800   6.1510180   2.7386350  20.5723930   6.6979390   3.1193940
  19.0985220   6.6950910   2.7735960  19.1880010   3.1556210   2.3511710
  19.6442790   3.9661460   2.5771900  18.8368220   2.8379350   3.1830200
  21.4912620   8.6662550   9.5804010  22.1354840   8.8721930  10.2577430
  21.8542060   7.9050950   9.1274860  22.7644700   6.6694900   8.2981460
  23.4066930   5.9688060   8.4113630  23.2894050   7.4493340   8.1178350
  24.5382320   7.4689800  11.5017520  24.8738560   8.0556490  12.1795440
  23.6182660   7.3382510  11.7315310  12.3758310   9.2465240  13.2707460
  12.4849430   8.3059980  13.1302850  11.7238870   9.5119990  12.6221190
  20.3670900   7.5181130  14.6705580  20.0467770   6.7990370  15.2151270
  19.6929260   8.1936200  14.7441640  20.0362780  10.9456140   2.9711590
  20.2904280  10.9077530   2.0490960  19.0875260  10.8189470   2.9639840
  28.0440940   9.0356870   6.2224360  28.1688360   9.8588040   6.6948170
  28.9106500   8.8247600   5.8748510  15.5158470  11.1288080   5.8941490
  16.2520950  10.5803540   6.1650060  15.8999390  11.9944090   5.7547480
  12.4003950   7.1961650   1.7683000  11.4743730   7.4382790   1.7588410
  12.8660380   8.0235910   1.6467750  14.5216750  10.3134150  15.0827070
  15.3229480  10.6346200  15.4962470  14.0068570   9.9529730  15.8046980
  23.3581380   6.4214020  15.0302480  22.7519540   6.4445620  14.2898230
  23.0535490   5.6897060  15.5669730  24.7881750  10.1494310  13.6411890
  25.7403500  10.0652330  13.5912130  24.6409970  10.8136020  14.3145680
  12.2414560   2.8007610  14.0263120  12.7453580   2.2214890  14.5979350
  11.5021980   3.0847840  14.5639490  19.2952500   4.2078600  13.5598640
  18.5298170   4.7763600  13.4753310  19.4768460   3.9154810  12.6666870
  26.4375850   5.9383930  14.1173660  27.1785320   6.2759690  13.6141120
  25.6748530   6.1075990  13.5643430  25.1121510   3.9898760  12.6528870
  25.5262530   4.1443840  13.5019290  24.1772510   4.1153980  12.8154650
  19.8736740   3.9419240  10.6224800  20.2924850   4.7851970  10.4501040
  18.9545370   4.0791280  10.3931580  24.5488540   2.2272610  10.5825150
  24.0223760   2.7515230   9.9790290  24.8919880   2.8600000  11.2134880
  17.7244160  10.2472250  11.7382530  17.1865250  10.9718310  11.4191230
  17.9778120   9.7702590  10.9479870  20.5806370  11.4823460  11.9969180
  20.5065070  12.3858600  12.3041550  19.6785210  11.1635360  11.9691250
  11.9833660   8.8098050   5.3002800  12.3136670   7.9419110   5.0681440
  12.4124660   9.0156570   6.1307760  16.5795580   7.1407060   2.9604770
  16.2791120   7.0172030   3.8608680  16.4733070   6.2815650   2.5520500
  12.4723870   9.6768640   8.0384430  12.0354860   9.8569440   8.8708580
  13.0401550  10.4343260   7.8966150  28.1086050   9.1785640  12.3261740
  27.5088040   9.2378200  11.5825660  28.2379950   8.2390620  12.4558590
  12.3048300   2.1888870   4.3973310  11.6497140   1.9200510   3.7533010
  13.1426250   2.0793350   3.9475290  29.8103930   4.5201040   5.0107580
  30.1812760   3.7368360   4.6043550  30.4505860   5.2090140   4.8324880
  26.7937690   5.9037620  10.4237900  25.9797530   6.3334780  10.6863690
  27.2011890   6.5156030   9.8106950  13.3424230   2.5741440   8.9376650
  13.7097270   2.4868840   9.8172670  12.7735050   1.8107990   8.8383510
  26.8513740  10.6556220   3.9506170  27.4472810  10.3340790   3.2740590
  27.1091890  10.1828040   4.7419440  14.7576310   7.0874130  14.0996800
  14.7145940   6.7167040  14.9811260  14.8887320   8.0251700  14.2398620
  18.4582340   8.6433720   9.7006520  18.2173700   8.9108280   8.8137040
  19.3984980   8.8139450   9.7557380  29.7186500  10.6628100  10.5017160
  29.2244780  11.0596970   9.7844290  29.1099790  10.0377310  10.8954440
  14.5964340  10.0336380  11.2194580  14.0024660   9.9021080  11.9584620
  14.5888180   9.1974520  10.7536680  27.4025950  11.3051520   7.7803900
  26.9428920  12.0567330   7.4061920  26.7738410  10.5857990   7.7218700
  14.2276570   7.3994760  10.1702620  13.5010630   6.7800050  10.1028570
  14.2885720   7.7935370   9.3000700  17.8321670   9.6139760   6.9552030
  18.3486690   9.0027120   6.4300290  18.4819050  10.1168540   7.4463040
  20.5717170  10.5048250   7.7821010  20.8594980  10.2502550   6.9054020
  21.0840390   9.9525610   8.3726580  12.5106570  10.7169150   3.3799380
  12.3428610  10.0839830   4.0781270  11.6441080  10.9228550   3.0293570
  20.6389530  11.4264350  15.1489210  21.5656840  11.1908620  15.1925170
  20.6239960  12.2536350  14.6675240  28.8734590  10.9689920   2.1463460
  29.0486780  10.2827660   1.5024380  28.1756160  11.4936970   1.7540130
  27.2067090  10.6534210  14.9730250  27.9992410  10.1583440  14.7656210
  27.5000240  11.3324350  15.5805860   4.5583260  76.6229110  79.7263750
   4.4777310  75.7083720  79.4555460   4.1447680  77.1196180  79.0203460
   3.1615460  73.8835700  81.8412110   3.5380280  73.0107580  81.7285780
   3.0634970  74.2194400  80.9502550   6.9439580  71.3786140  78.7740450
   7.7649200  70.8882710  78.8165930   6.9773660  71.9683800  79.5272290
  11.2339130  73.3952890  85.3384080  10.5291300  73.7834600  84.8199190
  11.4997050  74.0903180  85.9405010   7.1801060  73.3186520  81.5467990
   6.4756630  73.6071410  82.1271100   7.5413220  74.1286630  81.1867550
  10.2487980  72.7641310  81.9377200   9.3012890  72.7980290  82.0692630
  10.5737970  73.5780260  82.3226560   3.1688280  77.1287320  76.9693310
   2.2417560  77.0624700  77.1981780   3.3213100  78.0667450  76.8548550
   3.1557360  73.4004320  73.9660470   2.2161030  73.5618280  74.0512930
   3.4740620  74.1190000  73.4196460   6.6412130  74.8692160  84.8894370
   6.2283310  75.6945870  85.1434360   5.9088080  74.2837200  84.6970730
   8.9567410  69.1837240  72.7942350   8.6440070  69.2764070  73.6941420
   9.7179880  69.7618270  72.7439780   4.9625190  75.0229050  76.9615260
   4.3634080  75.7464850  76.7778880   5.5104800  74.9605830  76.1791710
   3.5690060  73.6592590  78.9918540   3.9619630  73.9764790  78.1787230
   3.9306910  72.7804470  79.1063060   4.1545200  76.2498340  83.0869320
   3.4226320  76.7585150  83.4359420   3.7569540  75.4328320  82.7858100
   4.6171110  71.7032020  82.4992260   4.6343850  72.1540670  83.3434110
   4.3686690  70.8037660  82.7125700   3.4309640  70.6227270  76.0894060
   2.6174250  70.1240440  76.0139370   3.2371590  71.4625520  75.6730410
   6.1458030  74.9946920  74.3856220   7.0337650  75.3064150  74.2107560
   6.1163120  74.1219170  73.9936800   8.4172300  76.3058760  73.8536080
   8.3336020  76.7372980  73.0032520   9.1366490  76.7657110  74.2862900
   4.8081010  72.8481250  85.1316340   5.1761830  72.0276460  85.4595910
   3.9479210  72.9083140  85.5471990   8.1743040  71.8038190  75.9403900
   7.5456200  71.9083860  75.2262130   7.6794960  72.0234970  76.7297780
   1.7683000  75.5020840  85.3554310   2.2668250  75.9766660  86.0206160
   1.9105950  74.5784360  85.5624340   4.1742500  70.8074800  78.7957570
   4.0510280  70.8260930  77.8467080   5.1227060  70.8553740  78.9155970
   7.2671870  76.9621980  79.6444060   6.3262010  76.9772210  79.8191750
   7.5815940  76.1757940  80.0904360   5.6519750  69.5248170  74.6535700
   5.9322040  68.6816070  75.0095120   4.8785480  69.7571280  75.1674450
   6.4795250  72.0804120  73.7165760   6.8980130  71.8935100  72.8762420
   6.1731310  71.2283170  74.0268690   9.9784980  76.9928260  77.4141560
   9.6028580  76.2256190  76.9822850   9.2488100  77.3750960  77.9016490
   9.2535940  75.2185750  80.7148800   9.7773420  74.7248400  80.0838970
   9.8395360  75.3536110  81.4596370   9.4325660  75.3025620  84.2368350
   8.4828370  75.2689160  84.3513340   9.6138670  76.2125730  84.0018120
   8.7435910  74.4759100  76.6541210   9.2395030  74.2429970  77.4390090
   8.5451980  73.6370940  76.2378850  10.1723070  73.1120050  79.1878890
  10.0622350  72.9576090  80.1261160  10.9330660  72.5840990  78.9454300
   8.5188790  69.0514180  85.6461890   9.1561010  69.6648320  86.0121080
   8.6663680  69.0874840  84.7011120  11.0613340  70.9427970  72.4285030
  11.9862650  70.8109150  72.2203320  11.0389130  71.0220790  73.3821480
  11.1351830  71.7138630  75.0541740  10.3403330  71.6483750  75.5834650
  11.3395110  72.6489270  75.0427090   5.2675870  68.4242570  84.5198570
   4.3935710  68.7577680  84.3171500   5.1586620  67.9515750  85.3450440
   6.1747850  70.6313440  85.9040290   5.8461210  69.8165200  85.5242020
   7.1230150  70.5883250  85.7805980   3.0150690  69.3412410  83.4591480
   2.2322480  69.8157910  83.7388240   2.7213620  68.4367240  83.3504660
   7.5671760  70.0435510  81.5040570   8.0079850  69.9880610  80.6562170
   7.2979350  70.9593520  81.5750750   9.4310330  69.6750750  79.5149390
   9.3698730  68.7311970  79.3680410  10.2102360  69.7830840  80.0602850
   5.4029890  68.4241610  80.2090580   6.0059260  68.9961820  80.6839100
   4.6622880  68.9881050  79.9864480   8.5464490  68.8263170  75.4830860
   8.7415120  69.7246620  75.7498290   7.7594360  68.5950250  75.9763810
   4.5583260  76.6229110  60.9520260   4.4777310  75.7083720  60.6811970
   4.1447680  77.1196180  60.2459970   3.1615460  73.8835700  63.0668620
   3.5380280  73.0107580  62.9542290   3.0634970  74.2194400  62.1759060
   6.9439580  71.3786140  59.9996960   7.7649200  70.8882710  60.0422440
   6.9773660  71.9683800  60.7528800  11.2339130  73.3952890  66.5640590
  10.5291300  73.7834600  66.0455700  11.4997050  74.0903180  67.1661520
   7.1801060  73.3186520  62.7724500   6.4756630  73.6071410  63.3527610
   7.5413220  74.1286630  62.4124060  10.2487980  72.7641310  63.1633710
   9.3012890  72.7980290  63.2949140  10.5737970  73.5780260  63.5483070
   3.1688280  77.1287320  58.1949820   2.2417560  77.0624700  58.4238290
   3.3213100  78.0667450  58.0805060   3.1557360  73.4004320  55.1916980
   2.2161030  73.5618280  55.2769440   3.4740620  74.1190000  54.6452970
   6.6412130  74.8692160  66.1150880   6.2283310  75.6945870  66.3690870
   5.9088080  74.2837200  65.9227240   8.9567410  69.1837240  54.0198860
   8.6440070  69.2764070  54.9197930   9.7179880  69.7618270  53.9696290
  10.1668700  73.9208740  69.9973000   9.5512970  74.4288410  69.4688460
   9.8465120  73.0207070  69.9398940   2.2283020  72.7600630  67.4635190
   1.7662390  72.9683650  68.2755130   1.8261130  71.9459980  67.1605860
   7.2287530  73.9809580  68.5931850   6.3781120  73.6815330  68.9140920
   7.0689320  74.2251590  67.6815670   4.3237240  75.4811330  70.6930640
   4.6490650  74.6475080  70.3532870   5.1117570  76.0039850  70.8408970
   4.9625190  75.0229050  58.1871770   4.3634080  75.7464850  58.0035390
   5.5104800  74.9605830  57.4048220   3.5690060  73.6592590  60.2175050
   3.9619630  73.9764790  59.4043740   3.9306910  72.7804470  60.3319570
   4.1545200  76.2498340  64.3125830   3.4226320  76.7585150  64.6615930
   3.7569540  75.4328320  64.0114610   4.6171110  71.7032020  63.7248770
   4.6343850  72.1540670  64.5690620   4.3686690  70.8037660  63.9382210
   8.0441860  69.1164200  69.5635150   8.3687630  68.3853860  70.0893130
   8.0798370  68.7977840  68.6616140   3.4309640  70.6227270  57.3150570
   2.6174250  70.1240440  57.2395880   3.2371590  71.4625520  56.8986920
   6.1458030  74.9946920  55.6112730   7.0337650  75.3064150  55.4364070
   6.1163120  74.1219170  55.2193310   8.4172300  76.3058760  55.0792590
   8.3336020  76.7372980  54.2289030   9.1366490  76.7657110  55.5119410
   4.8081010  72.8481250  66.3572850   5.1761830  72.0276460  66.6852420
   3.9479210  72.9083140  66.7728500   8.1743040  71.8038190  57.1660410
   7.5456200  71.9083860  56.4518640   7.6794960  72.0234970  57.9554290
   1.7683000  75.5020840  66.5810820   2.2668250  75.9766660  67.2462670
   1.9105950  74.5784360  66.7880850   4.1742500  70.8074800  60.0214080
   4.0510280  70.8260930  59.0723590   5.1227060  70.8553740  60.1412480
   8.9749860  71.7188800  67.4239210   8.4723460  72.4594200  67.7633020
   9.7906520  72.1072800  67.1076000   7.2671870  76.9621980  60.8700570
   6.3262010  76.9772210  61.0448260   7.5815940  76.1757940  61.3160870
   6.8100190  76.4268880  70.9798490   7.3920960  75.6721200  70.8918970
   6.9861960  76.9576320  70.2029970   3.4357150  76.7709380  68.3293110
   3.5553360  76.1750520  69.0687950   4.2951150  76.8079070  67.9094410
   5.7745050  77.3246570  66.9055620   5.2480270  77.8489190  66.3020760
   6.1176390  77.9573960  67.5365350   5.0219350  72.9296540  69.8201950
   4.3334870  72.2678080  69.7551940   5.7425370  72.4834810  70.2650410
   5.6519750  69.5248170  55.8792210   5.9322040  68.6816070  56.2351630
   4.8785480  69.7571280  56.3930960   6.4795250  72.0804120  54.9422270
   6.8980130  71.8935100  54.1018930   6.1731310  71.2283170  55.2525200
   9.9784980  76.9928260  58.6398070   9.6028580  76.2256190  58.2079360
   9.2488100  77.3750960  59.1273000   9.3684600  76.1399780  68.2737590
   9.1370690  75.9112530  67.3735540   9.6289150  77.0599330  68.2282480
   7.8072670  71.3656210  71.0517290   8.6842850  71.3739610  71.4351290
   7.8193510  70.6287050  70.4409640   9.2535940  75.2185750  61.9405310
   9.7773420  74.7248400  61.3095480   9.8395360  75.3536110  62.6852880
   9.4325660  75.3025620  65.4624860   8.4828370  75.2689160  65.5769850
   9.6138670  76.2125730  65.2274630   8.7435910  74.4759100  57.8797720
   9.2395030  74.2429970  58.6646600   8.5451980  73.6370940  57.4635360
  10.1723070  73.1120050  60.4135400  10.0622350  72.9576090  61.3517670
  10.9330660  72.5840990  60.1710810   8.5188790  69.0514180  66.8718400
   9.1561010  69.6648320  67.2377590   8.6663680  69.0874840  65.9267630
  11.0613340  70.9427970  53.6541540  11.9862650  70.8109150  53.4459830
  11.0389130  71.0220790  54.6077990  11.1351830  71.7138630  56.2798250
  10.3403330  71.6483750  56.8091160  11.3395110  72.6489270  56.2683600
   1.8893270  70.2040370  69.7793500   1.8282160  70.7962200  70.5288910
   2.8293650  70.0966330  69.6343760   4.5267830  69.8610430  69.4185790
   5.1408240  70.1789720  68.7566870   5.0717390  69.3759020  70.0381650
   5.2675870  68.4242570  65.7455080   4.3935710  68.7577680  65.5428010
   5.1586620  67.9515750  66.5706950   6.1747850  70.6313440  67.1296800
   5.8461210  69.8165200  66.7498530   7.1230150  70.5883250  67.0062490
   3.0150690  69.3412410  64.6847990   2.2322480  69.8157910  64.9644750
   2.7213620  68.4367240  64.5761170   7.5671760  70.0435510  62.7297080
   8.0079850  69.9880610  61.8818680   7.2979350  70.9593520  62.8007260
   9.4310330  69.6750750  60.7405900   9.3698730  68.7311970  60.5936920
  10.2102360  69.7830840  61.2859360   5.4029890  68.4241610  61.4347090
   6.0059260  68.9961820  61.9095610   4.6622880  68.9881050  61.2120990
   8.5464490  68.8263170  56.7087370   8.7415120  69.7246620  56.9754800
   7.7594360  68.5950250  57.2020320   5.6525110  68.6036640  71.8142030
   5.5390560  68.9231250  72.7093550   6.4694850  69.0049150  71.5179310
   4.5583260  76.6229110  42.1776770   4.4777310  75.7083720  41.9068480
   4.1447680  77.1196180  41.4716480   3.1615460  73.8835700  44.2925130
   3.5380280  73.0107580  44.1798800   3.0634970  74.2194400  43.4015570
   6.9439580  71.3786140  41.2253470   7.7649200  70.8882710  41.2678950
   6.9773660  71.9683800  41.9785310  11.2339130  73.3952890  47.7897100
  10.5291300  73.7834600  47.2712210  11.4997050  74.0903180  48.3918030
   7.1801060  73.3186520  43.9981010   6.4756630  73.6071410  44.5784120
   7.5413220  74.1286630  43.6380570  10.2487980  72.7641310  44.3890220
   9.3012890  72.7980290  44.5205650  10.5737970  73.5780260  44.7739580
   3.1688280  77.1287320  39.4206330   2.2417560  77.0624700  39.6494800
   3.3213100  78.0667450  39.3061570   3.1557360  73.4004320  36.4173490
   2.2161030  73.5618280  36.5025950   3.4740620  74.1190000  35.8709480
   6.6412130  74.8692160  47.3407390   6.2283310  75.6945870  47.5947380
   5.9088080  74.2837200  47.1483750   8.9567410  69.1837240  35.2455370
   8.6440070  69.2764070  36.1454440   9.7179880  69.7618270  35.1952800
  10.1668700  73.9208740  51.2229510   9.5512970  74.4288410  50.6944970
   9.8465120  73.0207070  51.1655450   2.2283020  72.7600630  48.6891700
   1.7662390  72.9683650  49.5011640   1.8261130  71.9459980  48.3862370
   7.2287530  73.9809580  49.8188360   6.3781120  73.6815330  50.1397430
   7.0689320  74.2251590  48.9072180   4.3237240  75.4811330  51.9187150
   4.6490650  74.6475080  51.5789380   5.1117570  76.0039850  52.0665480
   4.9625190  75.0229050  39.4128280   4.3634080  75.7464850  39.2291900
   5.5104800  74.9605830  38.6304730   3.5690060  73.6592590  41.4431560
   3.9619630  73.9764790  40.6300250   3.9306910  72.7804470  41.5576080
   4.1545200  76.2498340  45.5382340   3.4226320  76.7585150  45.8872440
   3.7569540  75.4328320  45.2371120   4.6171110  71.7032020  44.9505280
   4.6343850  72.1540670  45.7947130   4.3686690  70.8037660  45.1638720
   8.0441860  69.1164200  50.7891660   8.3687630  68.3853860  51.3149640
   8.0798370  68.7977840  49.8872650   3.4309640  70.6227270  38.5407080
   2.6174250  70.1240440  38.4652390   3.2371590  71.4625520  38.1243430
   6.1458030  74.9946920  36.8369240   7.0337650  75.3064150  36.6620580
   6.1163120  74.1219170  36.4449820   8.4172300  76.3058760  36.3049100
   8.3336020  76.7372980  35.4545540   9.1366490  76.7657110  36.7375920
   4.8081010  72.8481250  47.5829360   5.1761830  72.0276460  47.9108930
   3.9479210  72.9083140  47.9985010   8.1743040  71.8038190  38.3916920
   7.5456200  71.9083860  37.6775150   7.6794960  72.0234970  39.1810800
   1.7683000  75.5020840  47.8067330   2.2668250  75.9766660  48.4719180
   1.9105950  74.5784360  48.0137360   4.1742500  70.8074800  41.2470590
   4.0510280  70.8260930  40.2980100   5.1227060  70.8553740  41.3668990
   8.9749860  71.7188800  48.6495720   8.4723460  72.4594200  48.9889530
   9.7906520  72.1072800  48.3332510   7.2671870  76.9621980  42.0957080
   6.3262010  76.9772210  42.2704770   7.5815940  76.1757940  42.5417380
   6.8100190  76.4268880  52.2055000   7.3920960  75.6721200  52.1175480
   6.9861960  76.9576320  51.4286480   3.4357150  76.7709380  49.5549620
   3.5553360  76.1750520  50.2944460   4.2951150  76.8079070  49.1350920
   5.7745050  77.3246570  48.1312130   5.2480270  77.8489190  47.5277270
   6.1176390  77.9573960  48.7621860   5.0219350  72.9296540  51.0458460
   4.3334870  72.2678080  50.9808450   5.7425370  72.4834810  51.4906920
   5.6519750  69.5248170  37.1048720   5.9322040  68.6816070  37.4608140
   4.8785480  69.7571280  37.6187470   6.4795250  72.0804120  36.1678780
   6.8980130  71.8935100  35.3275440   6.1731310  71.2283170  36.4781710
   9.9784980  76.9928260  39.8654580   9.6028580  76.2256190  39.4335870
   9.2488100  77.3750960  40.3529510   9.3684600  76.1399780  49.4994100
   9.1370690  75.9112530  48.5992050   9.6289150  77.0599330  49.4538990
   7.8072670  71.3656210  52.2773800   8.6842850  71.3739610  52.6607800
   7.8193510  70.6287050  51.6666150   9.2535940  75.2185750  43.1661820
   9.7773420  74.7248400  42.5351990   9.8395360  75.3536110  43.9109390
   9.4325660  75.3025620  46.6881370   8.4828370  75.2689160  46.8026360
   9.6138670  76.2125730  46.4531140   8.7435910  74.4759100  39.1054230
   9.2395030  74.2429970  39.8903110   8.5451980  73.6370940  38.6891870
  10.1723070  73.1120050  41.6391910  10.0622350  72.9576090  42.5774180
  10.9330660  72.5840990  41.3967320   8.5188790  69.0514180  48.0974910
   9.1561010  69.6648320  48.4634100   8.6663680  69.0874840  47.1524140
  11.0613340  70.9427970  34.8798050  11.9862650  70.8109150  34.6716340
  11.0389130  71.0220790  35.8334500  11.1351830  71.7138630  37.5054760
  10.3403330  71.6483750  38.0347670  11.3395110  72.6489270  37.4940110
   1.8893270  70.2040370  51.0050010   1.8282160  70.7962200  51.7545420
   2.8293650  70.0966330  50.8600270   4.5267830  69.8610430  50.6442300
   5.1408240  70.1789720  49.9823380   5.0717390  69.3759020  51.2638160
   5.2675870  68.4242570  46.9711590   4.3935710  68.7577680  46.7684520
   5.1586620  67.9515750  47.7963460   6.1747850  70.6313440  48.3553310
   5.8461210  69.8165200  47.9755040   7.1230150  70.5883250  48.2319000
   3.0150690  69.3412410  45.9104500   2.2322480  69.8157910  46.1901260
   2.7213620  68.4367240  45.8017680   7.5671760  70.0435510  43.9553590
   8.0079850  69.9880610  43.1075190   7.2979350  70.9593520  44.0263770
   9.4310330  69.6750750  41.9662410   9.3698730  68.7311970  41.8193430
  10.2102360  69.7830840  42.5115870   5.4029890  68.4241610  42.6603600
   6.0059260  68.9961820  43.1352120   4.6622880  68.9881050  42.4377500
   8.5464490  68.8263170  37.9343880   8.7415120  69.7246620  38.2011310
   7.7594360  68.5950250  38.4276830   5.6525110  68.6036640  53.0398540
   5.5390560  68.9231250  53.9350060   6.4694850  69.0049150  52.7435820
   4.5583260  76.6229110  23.4033280   4.4777310  75.7083720  23.1324990
   4.1447680  77.1196180  22.6972990   3.1615460  73.8835700  25.5181640
   3.5380280  73.0107580  25.4055310   3.0634970  74.2194400  24.6272080
   6.9439580  71.3786140  22.4509980   7.7649200  70.8882710  22.4935460
   6.9773660  71.9683800  23.2041820  11.2339130  73.3952890  29.0153610
  10.5291300  73.7834600  28.4968720  11.4997050  74.0903180  29.6174540
   7.1801060  73.3186520  25.2237520   6.4756630  73.6071410  25.8040630
   7.5413220  74.1286630  24.8637080  10.2487980  72.7641310  25.6146730
   9.3012890  72.7980290  25.7462160  10.5737970  73.5780260  25.9996090
   3.1688280  77.1287320  20.6462840   2.2417560  77.0624700  20.8751310
   3.3213100  78.0667450  20.5318080   3.1557360  73.4004320  17.6430000
   2.2161030  73.5618280  17.7282460   3.4740620  74.1190000  17.0965990
   6.6412130  74.8692160  28.5663900   6.2283310  75.6945870  28.8203890
   5.9088080  74.2837200  28.3740260   8.9567410  69.1837240  16.4711880
   8.6440070  69.2764070  17.3710950   9.7179880  69.7618270  16.4209310
  10.1668700  73.9208740  32.4486020   9.5512970  74.4288410  31.9201480
   9.8465120  73.0207070  32.3911960   2.2283020  72.7600630  29.9148210
   1.7662390  72.9683650  30.7268150   1.8261130  71.9459980  29.6118880
   7.2287530  73.9809580  31.0444870   6.3781120  73.6815330  31.3653940
   7.0689320  74.2251590  30.1328690   4.3237240  75.4811330  33.1443660
   4.6490650  74.6475080  32.8045890   5.1117570  76.0039850  33.2921990
   4.9625190  75.0229050  20.6384790   4.3634080  75.7464850  20.4548410
   5.5104800  74.9605830  19.8561240   3.5690060  73.6592590  22.6688070
   3.9619630  73.9764790  21.8556760   3.9306910  72.7804470  22.7832590
   4.1545200  76.2498340  26.7638850   3.4226320  76.7585150  27.1128950
   3.7569540  75.4328320  26.4627630   4.6171110  71.7032020  26.1761790
   4.6343850  72.1540670  27.0203640   4.3686690  70.8037660  26.3895230
   8.0441860  69.1164200  32.0148170   8.3687630  68.3853860  32.5406150
   8.0798370  68.7977840  31.1129160   3.4309640  70.6227270  19.7663590
   2.6174250  70.1240440  19.6908900   3.2371590  71.4625520  19.3499940
   6.1458030  74.9946920  18.0625750   7.0337650  75.3064150  17.8877090
   6.1163120  74.1219170  17.6706330   8.4172300  76.3058760  17.5305610
   8.3336020  76.7372980  16.6802050   9.1366490  76.7657110  17.9632430
   4.8081010  72.8481250  28.8085870   5.1761830  72.0276460  29.1365440
   3.9479210  72.9083140  29.2241520   8.1743040  71.8038190  19.6173430
   7.5456200  71.9083860  18.9031660   7.6794960  72.0234970  20.4067310
   1.7683000  75.5020840  29.0323840   2.2668250  75.9766660  29.6975690
   1.9105950  74.5784360  29.2393870   4.1742500  70.8074800  22.4727100
   4.0510280  70.8260930  21.5236610   5.1227060  70.8553740  22.5925500
   8.9749860  71.7188800  29.8752230   8.4723460  72.4594200  30.2146040
   9.7906520  72.1072800  29.5589020   7.2671870  76.9621980  23.3213590
   6.3262010  76.9772210  23.4961280   7.5815940  76.1757940  23.7673890
   6.8100190  76.4268880  33.4311510   7.3920960  75.6721200  33.3431990
   6.9861960  76.9576320  32.6542990   3.4357150  76.7709380  30.7806130
   3.5553360  76.1750520  31.5200970   4.2951150  76.8079070  30.3607430
   5.7745050  77.3246570  29.3568640   5.2480270  77.8489190  28.7533780
   6.1176390  77.9573960  29.9878370   5.0219350  72.9296540  32.2714970
   4.3334870  72.2678080  32.2064960   5.7425370  72.4834810  32.7163430
   5.6519750  69.5248170  18.3305230   5.9322040  68.6816070  18.6864650
   4.8785480  69.7571280  18.8443980   6.4795250  72.0804120  17.3935290
   6.8980130  71.8935100  16.5531950   6.1731310  71.2283170  17.7038220
   9.9784980  76.9928260  21.0911090   9.6028580  76.2256190  20.6592380
   9.2488100  77.3750960  21.5786020   9.3684600  76.1399780  30.7250610
   9.1370690  75.9112530  29.8248560   9.6289150  77.0599330  30.6795500
   7.8072670  71.3656210  33.5030310   8.6842850  71.3739610  33.8864310
   7.8193510  70.6287050  32.8922660   9.2535940  75.2185750  24.3918330
   9.7773420  74.7248400  23.7608500   9.8395360  75.3536110  25.1365900
   9.4325660  75.3025620  27.9137880   8.4828370  75.2689160  28.0282870
   9.6138670  76.2125730  27.6787650   8.7435910  74.4759100  20.3310740
   9.2395030  74.2429970  21.1159620   8.5451980  73.6370940  19.9148380
  10.1723070  73.1120050  22.8648420  10.0622350  72.9576090  23.8030690
  10.9330660  72.5840990  22.6223830   8.5188790  69.0514180  29.3231420
   9.1561010  69.6648320  29.6890610   8.6663680  69.0874840  28.3780650
  11.0613340  70.9427970  16.1054560  11.9862650  70.8109150  15.8972850
  11.0389130  71.0220790  17.0591010  11.1351830  71.7138630  18.7311270
  10.3403330  71.6483750  19.2604180  11.3395110  72.6489270  18.7196620
   1.8893270  70.2040370  32.2306520   1.8282160  70.7962200  32.9801930
   2.8293650  70.0966330  32.0856780   4.5267830  69.8610430  31.8698810
   5.1408240  70.1789720  31.2079890   5.0717390  69.3759020  32.4894670
   5.2675870  68.4242570  28.1968100   4.3935710  68.7577680  27.9941030
   5.1586620  67.9515750  29.0219970   6.1747850  70.6313440  29.5809820
   5.8461210  69.8165200  29.2011550   7.1230150  70.5883250  29.4575510
   3.0150690  69.3412410  27.1361010   2.2322480  69.8157910  27.4157770
   2.7213620  68.4367240  27.0274190   7.5671760  70.0435510  25.1810100
   8.0079850  69.9880610  24.3331700   7.2979350  70.9593520  25.2520280
   9.4310330  69.6750750  23.1918920   9.3698730  68.7311970  23.0449940
  10.2102360  69.7830840  23.7372380   5.4029890  68.4241610  23.8860110
   6.0059260  68.9961820  24.3608630   4.6622880  68.9881050  23.6634010
   8.5464490  68.8263170  19.1600390   8.7415120  69.7246620  19.4267820
   7.7594360  68.5950250  19.6533340   5.6525110  68.6036640  34.2655050
   5.5390560  68.9231250  35.1606570   6.4694850  69.0049150  33.9692330
   4.5583260  76.6229110   4.6289790   4.4777310  75.7083720   4.3581500
   4.1447680  77.1196180   3.9229500   3.1615460  73.8835700   6.7438150
   3.5380280  73.0107580   6.6311820   3.0634970  74.2194400   5.8528590
   6.9439580  71.3786140   3.6766490   7.7649200  70.8882710   3.7191970
   6.9773660  71.9683800   4.4298330  11.2339130  73.3952890  10.2410120
  10.5291300  73.7834600   9.7225230  11.4997050  74.0903180  10.8431050
   7.1801060  73.3186520   6.4494030   6.4756630  73.6071410   7.0297140
   7.5413220  74.1286630   6.0893590  10.2487980  72.7641310   6.8403240
   9.3012890  72.7980290   6.9718670  10.5737970  73.5780260   7.2252600
   3.1688280  77.1287320   1.8719350   2.2417560  77.0624700   2.1007820
   3.3213100  78.0667450   1.7574590   6.6412130  74.8692160   9.7920410
   6.2283310  75.6945870  10.0460400   5.9088080  74.2837200   9.5996770
  10.1668700  73.9208740  13.6742530   9.5512970  74.4288410  13.1457990
   9.8465120  73.0207070  13.6168470   2.2283020  72.7600630  11.1404720
   1.7662390  72.9683650  11.9524660   1.8261130  71.9459980  10.8375390
   7.2287530  73.9809580  12.2701380   6.3781120  73.6815330  12.5910450
   7.0689320  74.2251590  11.3585200   4.3237240  75.4811330  14.3700170
   4.6490650  74.6475080  14.0302400   5.1117570  76.0039850  14.5178500
   3.5690060  73.6592590   3.8944580   3.9619630  73.9764790   3.0813270
   3.9306910  72.7804470   4.0089100   4.1545200  76.2498340   7.9895360
   3.4226320  76.7585150   8.3385460   3.7569540  75.4328320   7.6884140
   4.6171110  71.7032020   7.4018300   4.6343850  72.1540670   8.2460150
   4.3686690  70.8037660   7.6151740   8.0441860  69.1164200  13.2404680
   8.3687630  68.3853860  13.7662660   8.0798370  68.7977840  12.3385670
   4.8081010  72.8481250  10.0342380   5.1761830  72.0276460  10.3621950
   3.9479210  72.9083140  10.4498030   1.7683000  75.5020840  10.2580350
   2.2668250  75.9766660  10.9232200   1.9105950  74.5784360  10.4650380
   4.1742500  70.8074800   3.6983610   4.0510280  70.8260930   2.7493120
   5.1227060  70.8553740   3.8182010   8.9749860  71.7188800  11.1008740
   8.4723460  72.4594200  11.4402550   9.7906520  72.1072800  10.7845530
   7.2671870  76.9621980   4.5470100   6.3262010  76.9772210   4.7217790
   7.5815940  76.1757940   4.9930400   6.8100190  76.4268880  14.6568020
   7.3920960  75.6721200  14.5688500   6.9861960  76.9576320  13.8799500
   3.4357150  76.7709380  12.0062640   3.5553360  76.1750520  12.7457480
   4.2951150  76.8079070  11.5863940   5.7745050  77.3246570  10.5825150
   5.2480270  77.8489190   9.9790290   6.1176390  77.9573960  11.2134880
   5.0219350  72.9296540  13.4971480   4.3334870  72.2678080  13.4321470
   5.7425370  72.4834810  13.9419940   9.9784980  76.9928260   2.3167600
   9.6028580  76.2256190   1.8848890   9.2488100  77.3750960   2.8042530
   9.3684600  76.1399780  11.9507120   9.1370690  75.9112530  11.0505070
   9.6289150  77.0599330  11.9052010   7.8072670  71.3656210  14.7286820
   8.6842850  71.3739610  15.1120820   7.8193510  70.6287050  14.1179170
   9.2535940  75.2185750   5.6174840   9.7773420  74.7248400   4.9865010
   9.8395360  75.3536110   6.3622410   9.4325660  75.3025620   9.1394390
   8.4828370  75.2689160   9.2539380   9.6138670  76.2125730   8.9044160
  10.1723070  73.1120050   4.0904930  10.0622350  72.9576090   5.0287200
  10.9330660  72.5840990   3.8480340   8.5188790  69.0514180  10.5487930
   9.1561010  69.6648320  10.9147120   8.6663680  69.0874840   9.6037160
   1.8893270  70.2040370  13.4563030   1.8282160  70.7962200  14.2058440
   2.8293650  70.0966330  13.3113290   4.5267830  69.8610430  13.0955320
   5.1408240  70.1789720  12.4336400   5.0717390  69.3759020  13.7151180
   5.2675870  68.4242570   9.4224610   4.3935710  68.7577680   9.2197540
   5.1586620  67.9515750  10.2476480   6.1747850  70.6313440  10.8066330
   5.8461210  69.8165200  10.4268060   7.1230150  70.5883250  10.6832020
   3.0150690  69.3412410   8.3617520   2.2322480  69.8157910   8.6414280
   2.7213620  68.4367240   8.2530700   7.5671760  70.0435510   6.4066610
   8.0079850  69.9880610   5.5588210   7.2979350  70.9593520   6.4776790
   9.4310330  69.6750750   4.4175430   9.3698730  68.7311970   4.2706450
  10.2102360  69.7830840   4.9628890   5.4029890  68.4241610   5.1116620
   6.0059260  68.9961820   5.5865140   4.6622880  68.9881050   4.8890520
   5.6525110  68.6036640  15.4911560   5.5390560  68.9231250  16.3863080
   6.4694850  69.0049150  15.1948840   4.5583260  57.8485620  79.7263750
   4.4777310  56.9340230  79.4555460   4.1447680  58.3452690  79.0203460
   2.6901300  59.6264640  81.6073020   1.9143400  59.1465080  81.8971590
   3.3414230  58.9470290  81.4329180   6.7108730  64.0324830  80.3872150
   6.2490260  63.2612070  80.7159320   7.5234280  64.0590900  80.8924600
   2.9372040  66.3182840  80.0076140   2.3183480  66.7740340  79.4370580
   3.7923820  66.4734300  79.6065840   2.1310290  62.3021830  81.6143180
   2.0618570  61.3611770  81.4532310   2.8930150  62.3923240  82.1865750
   3.1615460  55.1092210  81.8412110   3.5380280  54.2364090  81.7285780
   3.0634970  55.4450910  80.9502550   6.9439580  52.6042650  78.7740450
   7.7649200  52.1139220  78.8165930   6.9773660  53.1940310  79.5272290
  11.2339130  54.6209400  85.3384080  10.5291300  55.0091110  84.8199190
  11.4997050  55.3159690  85.9405010   3.8035390  61.2022080  77.4008050
   3.1852660  61.6671530  76.8370770   4.3158640  61.8949560  77.8177560
   7.1801060  54.5443030  81.5467990   6.4756630  54.8327920  82.1271100
   7.5413220  55.3543140  81.1867550   8.7963840  64.1618160  83.8095470
   8.1127360  64.8317270  83.8012140   9.3358130  64.3598810  83.0440330
  10.2487980  53.9897820  81.9377200   9.3012890  54.0236800  82.0692630
  10.5737970  54.8036770  82.3226560   6.3322580  66.0062290  82.5240650
   6.3449740  65.6024580  81.6562910   5.7797800  66.7809580  82.4202080
   7.6268000  62.7278510  77.6130820   7.5164330  61.7852840  77.7380240
   7.6236250  63.0894150  78.4993580   5.7308020  60.9092130  83.8523260
   6.1476810  60.6952240  83.0176720   6.4547840  61.1664920  84.4231880
   3.1688280  58.3543830  76.9693310   2.2417560  58.2881210  77.1981780
   3.3213100  59.2923960  76.8548550   3.1557360  54.6260830  73.9660470
   2.2161030  54.7874790  74.0512930   3.4740620  55.3446510  73.4196460
   9.6770120  59.3079350  83.9439500   8.8488750  59.3772440  83.4689630
  10.2720600  59.8933660  83.4755330   7.1985570  59.9164130  77.4728560
   6.5797990  59.5783680  76.8254860   7.1810020  59.2723890  78.1807750
   6.6412130  56.0948670  84.8894370   6.2283310  56.9202380  85.1434360
   5.9088080  55.5093710  84.6970730   7.3312230  66.1408000  85.5775350
   6.8542790  66.9480190  85.3847960   6.6474020  65.4886330  85.7301560
   5.3750270  59.1550940  74.4801310   5.8143550  58.3173370  74.3339130
   6.0878690  59.7880340  74.5665450   3.4845650  64.0947010  78.4482550
   3.9241560  64.8371340  78.0337940   3.4232540  64.3373580  79.3721510
   8.9567410  50.4093750  72.7942350   8.6440070  50.5020580  73.6941420
   9.7179880  50.9874780  72.7439780   6.1515830  67.0816130  75.8045560
   5.9916970  66.7919070  76.7027390   5.9862540  66.3056260  75.2690790
   5.8541960  64.5903690  74.3643560   5.1607120  64.5880980  73.7045840
   6.5964820  64.1663010  73.9337730   5.4191890  66.2166400  78.4392050
   5.8748840  65.4355780  78.7530670   5.7584410  66.9273220  78.9833230
   4.9625190  56.2485560  76.9615260   4.3634080  56.9721360  76.7778880
   5.5104800  56.1862340  76.1791710   3.5690060  54.8849100  78.9918540
   3.9619630  55.2021300  78.1787230   3.9306910  54.0060980  79.1063060
   4.1545200  57.4754850  83.0869320   3.4226320  57.9841660  83.4359420
   3.7569540  56.6584830  82.7858100   4.6171110  52.9288530  82.4992260
   4.6343850  53.3797180  83.3434110   4.3686690  52.0294170  82.7125700
   7.9699700  60.4545820  81.9464670   8.6898820  60.9501110  81.5560780
   7.7681520  59.7763710  81.3018540   3.4309640  51.8483780  76.0894060
   2.6174250  51.3496950  76.0139370   3.2371590  52.6882030  75.6730410
   6.1458030  56.2203430  74.3856220   7.0337650  56.5320660  74.2107560
   6.1163120  55.3475680  73.9936800   8.4172300  57.5315270  73.8536080
   8.3336020  57.9629490  73.0032520   9.1366490  57.9913620  74.2862900
   9.4459550  64.3857530  76.5818210   8.8035710  63.7313150  76.8561930
   9.0590210  64.7912620  75.8058880   5.0246030  61.7142960  80.4289900
   5.3769850  61.1171090  79.7691270   4.1408360  61.3887190  80.5998150
   2.7169130  64.9893020  84.6777970   3.3611350  65.1952400  85.3551390
   3.0798570  64.2281420  84.2248820   3.9901210  62.9925370  83.3955420
   4.6323440  62.2918530  83.5087590   4.5150560  63.7723810  83.2152310
   7.8356930  63.2773990  73.1194560   7.6094510  62.5604430  73.7119200
   7.4453130  63.0286430  72.2816310   7.4173180  61.1945930  74.7808720
   7.1294880  61.6558620  75.5686600   8.2125350  60.7343700  75.0492940
   4.8081010  54.0737760  85.1316340   5.1761830  53.2532970  85.4595910
   3.9479210  54.1339650  85.5471990   8.1743040  53.0294700  75.9403900
   7.5456200  53.1340370  75.2262130   7.6794960  53.2491480  76.7297780
   2.6201180  64.7500290  73.3737880   2.7213160  64.5464280  72.4439860
   1.7202920  64.4958570  73.5785660   1.7683000  56.7277350  85.3554310
   2.2668250  57.2023170  86.0206160   1.9105950  55.8040870  85.5624340
   4.1742500  52.0331310  78.7957570   4.0510280  52.0517440  77.8467080
   5.1227060  52.0810250  78.9155970   7.2671870  58.1878490  79.6444060
   6.3262010  58.2028720  79.8191750   7.5815940  57.4014450  80.0904360
   9.2697450  65.3587340  81.3198320   9.3944870  66.1818510  81.7922130
  10.1363010  65.1478070  80.9722470   8.9047460  65.8518990  74.2377760
   8.6188970  65.4384130  73.4231940   8.7067010  66.7806700  74.1178280
   3.6097420  60.9072300  73.2825360   3.0607520  61.3541600  73.9268100
   4.2316680  60.4021550  73.8063030   1.7900180  58.8900830  72.4267760
   2.3105840  58.1749850  72.0608910   2.4368580  59.5286700  72.7268270
   5.6519750  50.7504680  74.6535700   5.9322040  49.9072580  75.0095120
   4.8785480  50.9827790  75.1674450   2.3548210  66.9712440  74.7169500
   3.2499000  67.3097410  74.7388260   2.3865840  66.2491850  74.0893780
  10.5744010  63.2433930  72.7605410   9.7436970  63.3110580  73.2312640
  10.7515840  64.1338050  72.4572270  10.0300470  59.9881410  75.2639610
  10.7919380  60.5578060  75.3699300  10.0454840  59.4208610  76.0347920
  11.0360440  60.8431510  80.1081540  11.4069270  60.0598830  79.7017510
  11.6762370  61.5320610  79.9298840   8.0194200  62.2268090  85.5211860
   7.2054040  62.6565250  85.7837650   8.4268400  62.8386500  84.9080910
  10.0819640  60.2815780  72.4212130  10.3568480  61.1894660  72.2931350
   9.8930380  60.2178310  73.3574120   6.4795250  53.3060630  73.7165760
   6.8980130  53.1191610  72.8762420   6.1731310  52.4539680  74.0268690
   9.9784980  58.2184770  77.4141560   9.6028580  57.4512700  76.9822850
   9.2488100  58.6007470  77.9016490   9.2535940  56.4442260  80.7148800
   9.7773420  55.9504910  80.0838970   9.8395360  56.5792620  81.4596370
   9.4325660  56.5282130  84.2368350   8.4828370  56.4945670  84.3513340
   9.6138670  57.4382240  84.0018120   8.7435910  55.7015610  76.6541210
   9.2395030  55.4686480  77.4390090   8.5451980  54.8627450  76.2378850
  10.1723070  54.3376560  79.1878890  10.0622350  54.1832600  80.1261160
  10.9330660  53.8097500  78.9454300   8.5188790  50.2770690  85.6461890
   9.1561010  50.8904830  86.0121080   8.6663680  50.3131350  84.7011120
  11.0613340  52.1684480  72.4285030  11.9862650  52.0365660  72.2203320
  11.0389130  52.2477300  73.3821480  11.1351830  52.9395140  75.0541740
  10.3403330  52.8740260  75.5834650  11.3395110  53.8745780  75.0427090
   8.0770250  66.9786690  79.0480130   8.6729320  66.6571260  78.3714550
   8.3348400  66.5058510  79.8393400  10.9443010  66.9858570  85.5991120
  10.4501290  67.3827440  84.8818250  10.3356300  66.3607780  85.9928400
   5.2675870  49.6499080  84.5198570   4.3935710  49.9834190  84.3171500
   5.1586620  49.1772260  85.3450440   6.1747850  51.8569950  85.9040290
   5.8461210  51.0421710  85.5242020   7.1230150  51.8139760  85.7805980
   8.6282460  67.6281990  82.8777860   8.1685430  68.3797800  82.5035880
   7.9994920  66.9088460  82.8192660   1.7973680  66.8278720  82.8794970
   2.0851490  66.5733020  82.0027980   2.3096900  66.2756080  83.4700540
   3.0150690  50.5668920  83.4591480   2.2322480  51.0414420  83.7388240
   2.7213620  49.6623750  83.3504660   7.5671760  51.2692020  81.5040570
   8.0079850  51.2137120  80.6562170   7.2979350  52.1850030  81.5750750
   9.4310330  50.9007260  79.5149390   9.3698730  49.9568480  79.3680410
  10.2102360  51.0087350  80.0602850   5.4029890  49.6498120  80.2090580
   6.0059260  50.2218330  80.6839100   4.6622880  50.2137560  79.9864480
   8.5464490  50.0519680  75.4830860   8.7415120  50.9503130  75.7498290
   7.7594360  49.8206760  75.9763810  10.0991100  67.2920390  77.2437420
  10.2743290  66.6058130  76.5998340   9.4012670  67.8167440  76.8514090
   4.5583260  57.8485620  60.9520260   4.4777310  56.9340230  60.6811970
   4.1447680  58.3452690  60.2459970   2.6901300  59.6264640  62.8329530
   1.9143400  59.1465080  63.1228100   3.3414230  58.9470290  62.6585690
   6.7108730  64.0324830  61.6128660   6.2490260  63.2612070  61.9415830
   7.5234280  64.0590900  62.1181110   2.9372040  66.3182840  61.2332650
   2.3183480  66.7740340  60.6627090   3.7923820  66.4734300  60.8322350
   2.1310290  62.3021830  62.8399690   2.0618570  61.3611770  62.6788820
   2.8930150  62.3923240  63.4122260   3.1615460  55.1092210  63.0668620
   3.5380280  54.2364090  62.9542290   3.0634970  55.4450910  62.1759060
   6.9439580  52.6042650  59.9996960   7.7649200  52.1139220  60.0422440
   6.9773660  53.1940310  60.7528800  11.2339130  54.6209400  66.5640590
  10.5291300  55.0091110  66.0455700  11.4997050  55.3159690  67.1661520
   3.8035390  61.2022080  58.6264560   3.1852660  61.6671530  58.0627280
   4.3158640  61.8949560  59.0434070   7.1801060  54.5443030  62.7724500
   6.4756630  54.8327920  63.3527610   7.5413220  55.3543140  62.4124060
   8.7963840  64.1618160  65.0351980   8.1127360  64.8317270  65.0268650
   9.3358130  64.3598810  64.2696840  10.2487980  53.9897820  63.1633710
   9.3012890  54.0236800  63.2949140  10.5737970  54.8036770  63.5483070
   6.3322580  66.0062290  63.7497160   6.3449740  65.6024580  62.8819420
   5.7797800  66.7809580  63.6458590   7.6268000  62.7278510  58.8387330
   7.5164330  61.7852840  58.9636750   7.6236250  63.0894150  59.7250090
   5.7308020  60.9092130  65.0779770   6.1476810  60.6952240  64.2433230
   6.4547840  61.1664920  65.6488390   3.1688280  58.3543830  58.1949820
   2.2417560  58.2881210  58.4238290   3.3213100  59.2923960  58.0805060
   3.1557360  54.6260830  55.1916980   2.2161030  54.7874790  55.2769440
   3.4740620  55.3446510  54.6452970   9.6770120  59.3079350  65.1696010
   8.8488750  59.3772440  64.6946140  10.2720600  59.8933660  64.7011840
   7.1985570  59.9164130  58.6985070   6.5797990  59.5783680  58.0511370
   7.1810020  59.2723890  59.4064260   6.6412130  56.0948670  66.1150880
   6.2283310  56.9202380  66.3690870   5.9088080  55.5093710  65.9227240
   7.3312230  66.1408000  66.8031860   6.8542790  66.9480190  66.6104470
   6.6474020  65.4886330  66.9558070   5.3750270  59.1550940  55.7057820
   5.8143550  58.3173370  55.5595640   6.0878690  59.7880340  55.7921960
   3.4845650  64.0947010  59.6739060   3.9241560  64.8371340  59.2594450
   3.4232540  64.3373580  60.5978020   8.9567410  50.4093750  54.0198860
   8.6440070  50.5020580  54.9197930   9.7179880  50.9874780  53.9696290
  10.9111440  65.9019940  71.8723250  11.3871160  66.3802830  72.5512330
  11.5318600  65.8337430  71.1468750  10.3144690  63.0932790  69.0323260
  10.4407750  62.8544670  68.1140440  10.3566070  62.2617330  69.5045340
   4.1761430  66.7960790  67.6018070   4.6906100  66.7068800  68.4040500
   3.3330510  67.1420490  67.8945980   6.1515830  67.0816130  57.0302070
   5.9916970  66.7919070  57.9283900   5.9862540  66.3056260  56.4947300
   5.8541960  64.5903690  55.5900070   5.1607120  64.5880980  54.9302350
   6.5964820  64.1663010  55.1594240   5.4191890  66.2166400  59.6648560
   5.8748840  65.4355780  59.9787180   5.7584410  66.9273220  60.2089740
  10.1668700  55.1465250  69.9973000   9.5512970  55.6544920  69.4688460
   9.8465120  54.2463580  69.9398940   2.2283020  53.9857140  67.4635190
   1.7662390  54.1940160  68.2755130   1.8261130  53.1716490  67.1605860
   7.2287530  55.2066090  68.5931850   6.3781120  54.9071840  68.9140920
   7.0689320  55.4508100  67.6815670   4.3237240  56.7067840  70.6930640
   4.6490650  55.8731590  70.3532870   5.1117570  57.2296360  70.8408970
   4.9625190  56.2485560  58.1871770   4.3634080  56.9721360  58.0035390
   5.5104800  56.1862340  57.4048220   3.5690060  54.8849100  60.2175050
   3.9619630  55.2021300  59.4043740   3.9306910  54.0060980  60.3319570
   4.1545200  57.4754850  64.3125830   3.4226320  57.9841660  64.6615930
   3.7569540  56.6584830  64.0114610   4.6171110  52.9288530  63.7248770
   4.6343850  53.3797180  64.5690620   4.3686690  52.0294170  63.9382210
   8.0441860  50.3420710  69.5635150   8.3687630  49.6110370  70.0893130
   8.0798370  50.0234350  68.6616140   7.9699700  60.4545820  63.1721180
   8.6898820  60.9501110  62.7817290   7.7681520  59.7763710  62.5275050
   3.4309640  51.8483780  57.3150570   2.6174250  51.3496950  57.2395880
   3.2371590  52.6882030  56.8986920   3.3518500  60.5254880  69.0590180
   3.2855810  59.6050550  68.8047770   2.7223640  60.6230320  69.7734820
   6.1458030  56.2203430  55.6112730   7.0337650  56.5320660  55.4364070
   6.1163120  55.3475680  55.2193310   3.2835230  63.3475450  68.8093980
   3.2979770  62.4156410  68.5912890   2.5760330  63.4335210  69.4483750
   8.4172300  57.5315270  55.0792590   8.3336020  57.9629490  54.2289030
   9.1366490  57.9913620  55.5119410   9.4946440  59.9882790  68.1562560
   8.7694630  60.5811570  67.9591950  10.0221900  59.9806330  67.3575930
   9.4459550  64.3857530  57.8074720   8.8035710  63.7313150  58.0818440
   9.0590210  64.7912620  57.0315390   5.0246030  61.7142960  61.6546410
   5.3769850  61.1171090  60.9947780   4.1408360  61.3887190  61.8254660
   2.7169130  64.9893020  65.9034480   3.3611350  65.1952400  66.5807900
   3.0798570  64.2281420  65.4505330   3.9901210  62.9925370  64.6211930
   4.6323440  62.2918530  64.7344100   4.5150560  63.7723810  64.4408820
   7.8356930  63.2773990  54.3451070   7.6094510  62.5604430  54.9375710
   7.4453130  63.0286430  53.5072820   5.7638830  63.7920270  67.8247990
   6.0995070  64.3786960  68.5025910   4.8439170  63.6612980  68.0545780
   7.4173180  61.1945930  56.0065230   7.1294880  61.6558620  56.7943110
   8.2125350  60.7343700  56.2749450   4.8081010  54.0737760  66.3572850
   5.1761830  53.2532970  66.6852420   3.9479210  54.1339650  66.7728500
   8.1743040  53.0294700  57.1660410   7.5456200  53.1340370  56.4518640
   7.6794960  53.2491480  57.9554290   2.6201180  64.7500290  54.5994390
   2.7213160  64.5464280  53.6696370   1.7202920  64.4958570  54.8042170
   1.7683000  56.7277350  66.5810820   2.2668250  57.2023170  67.2462670
   1.9105950  55.8040870  66.7880850   4.1742500  52.0331310  60.0214080
   4.0510280  52.0517440  59.0723590   5.1227060  52.0810250  60.1412480
   8.9749860  52.9445310  67.4239210   8.4723460  53.6850710  67.7633020
   9.7906520  53.3329310  67.1076000   7.2671870  58.1878490  60.8700570
   6.3262010  58.2028720  61.0448260   7.5815940  57.4014450  61.3160870
   9.2697450  65.3587340  62.5454830   9.3944870  66.1818510  63.0178640
  10.1363010  65.1478070  62.1978980   4.5837890  62.7444490  71.3532950
   3.9776050  62.7676090  70.6128700   4.2792000  62.0127530  71.8900200
   6.0138260  66.4724780  69.9642360   6.9660010  66.3882800  69.9142600
   5.8666480  67.1366490  70.6376150   8.9047460  65.8518990  55.4634270
   8.6188970  65.4384130  54.6488450   8.7067010  66.7806700  55.3434790
   3.6097420  60.9072300  54.5081870   3.0607520  61.3541600  55.1524610
   4.2316680  60.4021550  55.0319540   7.6632360  62.2614400  70.4404130
   8.4041830  62.5990160  69.9371590   6.9005040  62.4306460  69.8873900
   1.7900180  58.8900830  53.6524270   2.3105840  58.1749850  53.2865420
   2.4368580  59.5286700  53.9524780   6.3378020  60.3129230  68.9759340
   6.7519040  60.4674310  69.8249760   5.4029020  60.4384450  69.1385120
   6.8100190  57.6525390  70.9798490   7.3920960  56.8977710  70.8918970
   6.9861960  58.1832830  70.2029970   3.4357150  57.9965890  68.3293110
   3.5553360  57.4007030  69.0687950   4.2951150  58.0335580  67.9094410
   5.7745050  58.5503080  66.9055620   5.2480270  59.0745700  66.3020760
   6.1176390  59.1830470  67.5365350   5.0219350  54.1553050  69.8201950
   4.3334870  53.4934590  69.7551940   5.7425370  53.7091320  70.2650410
   5.6519750  50.7504680  55.8792210   5.9322040  49.9072580  56.2351630
   4.8785480  50.9827790  56.3930960   2.3548210  66.9712440  55.9426010
   3.2499000  67.3097410  55.9644770   2.3865840  66.2491850  55.3150290
   9.3342560  65.5016110  68.6492210   8.7344550  65.5608670  67.9056130
   9.4636460  64.5621090  68.7789060  10.5744010  63.2433930  53.9861920
   9.7436970  63.3110580  54.4569150  10.7515840  64.1338050  53.6828780
  10.0300470  59.9881410  56.4896120  10.7919380  60.5578060  56.5955810
  10.0454840  59.4208610  57.2604430  11.0360440  60.8431510  61.3338050
  11.4069270  60.0598830  60.9274020  11.6762370  61.5320610  61.1555350
   8.0194200  62.2268090  66.7468370   7.2054040  62.6565250  67.0094160
   8.4268400  62.8386500  66.1337420  10.0819640  60.2815780  53.6468640
  10.3568480  61.1894660  53.5187860   9.8930380  60.2178310  54.5830630
   6.4795250  53.3060630  54.9422270   6.8980130  53.1191610  54.1018930
   6.1731310  52.4539680  55.2525200   9.9784980  58.2184770  58.6398070
   9.6028580  57.4512700  58.2079360   9.2488100  58.6007470  59.1273000
   9.3684600  57.3656290  68.2737590   9.1370690  57.1369040  67.3735540
   9.6289150  58.2855840  68.2282480   7.8072670  52.5912720  71.0517290
   8.6842850  52.5996120  71.4351290   7.8193510  51.8543560  70.4409640
   9.2535940  56.4442260  61.9405310   9.7773420  55.9504910  61.3095480
   9.8395360  56.5792620  62.6852880   9.4325660  56.5282130  65.4624860
   8.4828370  56.4945670  65.5769850   9.6138670  57.4382240  65.2274630
   8.7435910  55.7015610  57.8797720   9.2395030  55.4686480  58.6646600
   8.5451980  54.8627450  57.4635360  10.1723070  54.3376560  60.4135400
  10.0622350  54.1832600  61.3517670  10.9330660  53.8097500  60.1710810
   8.5188790  50.2770690  66.8718400   9.1561010  50.8904830  67.2377590
   8.6663680  50.3131350  65.9267630  11.0613340  52.1684480  53.6541540
  11.9862650  52.0365660  53.4459830  11.0389130  52.2477300  54.6077990
  11.1351830  52.9395140  56.2798250  10.3403330  52.8740260  56.8091160
  11.3395110  53.8745780  56.2683600   8.0770250  66.9786690  60.2736640
   8.6729320  66.6571260  59.5971060   8.3348400  66.5058510  61.0649910
   1.8893270  51.4296880  69.7793500   1.8282160  52.0218710  70.5288910
   2.8293650  51.3222840  69.6343760   4.5267830  51.0866940  69.4185790
   5.1408240  51.4046230  68.7566870   5.0717390  50.6015530  70.0381650
  10.9443010  66.9858570  66.8247630  10.4501290  67.3827440  66.1074760
  10.3356300  66.3607780  67.2184910   5.2675870  49.6499080  65.7455080
   4.3935710  49.9834190  65.5428010   5.1586620  49.1772260  66.5706950
   6.1747850  51.8569950  67.1296800   5.8461210  51.0421710  66.7498530
   7.1230150  51.8139760  67.0062490   8.6282460  67.6281990  64.1034370
   8.1685430  68.3797800  63.7292390   7.9994920  66.9088460  64.0449170
   1.7973680  66.8278720  64.1051480   2.0851490  66.5733020  63.2284490
   2.3096900  66.2756080  64.6957050   3.0150690  50.5668920  64.6847990
   2.2322480  51.0414420  64.9644750   2.7213620  49.6623750  64.5761170
   7.5671760  51.2692020  62.7297080   8.0079850  51.2137120  61.8818680
   7.2979350  52.1850030  62.8007260   9.4310330  50.9007260  60.7405900
   9.3698730  49.9568480  60.5936920  10.2102360  51.0087350  61.2859360
   5.4029890  49.6498120  61.4347090   6.0059260  50.2218330  61.9095610
   4.6622880  50.2137560  61.2120990   8.5464490  50.0519680  56.7087370
   8.7415120  50.9503130  56.9754800   7.7594360  49.8206760  57.2020320
   1.8646040  67.7494820  71.4719680   2.7913350  67.5139090  71.5155640
   1.8496470  68.5766820  70.9905710  10.0991100  67.2920390  58.4693930
  10.2743290  66.6058130  57.8254850   9.4012670  67.8167440  58.0770600
   5.6525110  49.8293150  71.8142030   5.5390560  50.1487760  72.7093550
   6.4694850  50.2305660  71.5179310   8.4323600  66.9764680  71.2960720
   9.2248920  66.4813910  71.0886680   8.7256750  67.6554820  71.9036330
   4.5583260  57.8485620  42.1776770   4.4777310  56.9340230  41.9068480
   4.1447680  58.3452690  41.4716480   2.6901300  59.6264640  44.0586040
   1.9143400  59.1465080  44.3484610   3.3414230  58.9470290  43.8842200
   6.7108730  64.0324830  42.8385170   6.2490260  63.2612070  43.1672340
   7.5234280  64.0590900  43.3437620   2.9372040  66.3182840  42.4589160
   2.3183480  66.7740340  41.8883600   3.7923820  66.4734300  42.0578860
   2.1310290  62.3021830  44.0656200   2.0618570  61.3611770  43.9045330
   2.8930150  62.3923240  44.6378770   3.1615460  55.1092210  44.2925130
   3.5380280  54.2364090  44.1798800   3.0634970  55.4450910  43.4015570
   6.9439580  52.6042650  41.2253470   7.7649200  52.1139220  41.2678950
   6.9773660  53.1940310  41.9785310  11.2339130  54.6209400  47.7897100
  10.5291300  55.0091110  47.2712210  11.4997050  55.3159690  48.3918030
   3.8035390  61.2022080  39.8521070   3.1852660  61.6671530  39.2883790
   4.3158640  61.8949560  40.2690580   7.1801060  54.5443030  43.9981010
   6.4756630  54.8327920  44.5784120   7.5413220  55.3543140  43.6380570
   8.7963840  64.1618160  46.2608490   8.1127360  64.8317270  46.2525160
   9.3358130  64.3598810  45.4953350  10.2487980  53.9897820  44.3890220
   9.3012890  54.0236800  44.5205650  10.5737970  54.8036770  44.7739580
   6.3322580  66.0062290  44.9753670   6.3449740  65.6024580  44.1075930
   5.7797800  66.7809580  44.8715100   7.6268000  62.7278510  40.0643840
   7.5164330  61.7852840  40.1893260   7.6236250  63.0894150  40.9506600
   5.7308020  60.9092130  46.3036280   6.1476810  60.6952240  45.4689740
   6.4547840  61.1664920  46.8744900   3.1688280  58.3543830  39.4206330
   2.2417560  58.2881210  39.6494800   3.3213100  59.2923960  39.3061570
   3.1557360  54.6260830  36.4173490   2.2161030  54.7874790  36.5025950
   3.4740620  55.3446510  35.8709480   9.6770120  59.3079350  46.3952520
   8.8488750  59.3772440  45.9202650  10.2720600  59.8933660  45.9268350
   7.1985570  59.9164130  39.9241580   6.5797990  59.5783680  39.2767880
   7.1810020  59.2723890  40.6320770   6.6412130  56.0948670  47.3407390
   6.2283310  56.9202380  47.5947380   5.9088080  55.5093710  47.1483750
   7.3312230  66.1408000  48.0288370   6.8542790  66.9480190  47.8360980
   6.6474020  65.4886330  48.1814580   5.3750270  59.1550940  36.9314330
   5.8143550  58.3173370  36.7852150   6.0878690  59.7880340  37.0178470
   3.4845650  64.0947010  40.8995570   3.9241560  64.8371340  40.4850960
   3.4232540  64.3373580  41.8234530   8.9567410  50.4093750  35.2455370
   8.6440070  50.5020580  36.1454440   9.7179880  50.9874780  35.1952800
  10.9111440  65.9019940  53.0979760  11.3871160  66.3802830  53.7768840
  11.5318600  65.8337430  52.3725260  10.3144690  63.0932790  50.2579770
  10.4407750  62.8544670  49.3396950  10.3566070  62.2617330  50.7301850
   4.1761430  66.7960790  48.8274580   4.6906100  66.7068800  49.6297010
   3.3330510  67.1420490  49.1202490   6.1515830  67.0816130  38.2558580
   5.9916970  66.7919070  39.1540410   5.9862540  66.3056260  37.7203810
   5.8541960  64.5903690  36.8156580   5.1607120  64.5880980  36.1558860
   6.5964820  64.1663010  36.3850750   5.4191890  66.2166400  40.8905070
   5.8748840  65.4355780  41.2043690   5.7584410  66.9273220  41.4346250
  10.1668700  55.1465250  51.2229510   9.5512970  55.6544920  50.6944970
   9.8465120  54.2463580  51.1655450   2.2283020  53.9857140  48.6891700
   1.7662390  54.1940160  49.5011640   1.8261130  53.1716490  48.3862370
   7.2287530  55.2066090  49.8188360   6.3781120  54.9071840  50.1397430
   7.0689320  55.4508100  48.9072180   4.3237240  56.7067840  51.9187150
   4.6490650  55.8731590  51.5789380   5.1117570  57.2296360  52.0665480
   4.9625190  56.2485560  39.4128280   4.3634080  56.9721360  39.2291900
   5.5104800  56.1862340  38.6304730   3.5690060  54.8849100  41.4431560
   3.9619630  55.2021300  40.6300250   3.9306910  54.0060980  41.5576080
   4.1545200  57.4754850  45.5382340   3.4226320  57.9841660  45.8872440
   3.7569540  56.6584830  45.2371120   4.6171110  52.9288530  44.9505280
   4.6343850  53.3797180  45.7947130   4.3686690  52.0294170  45.1638720
   8.0441860  50.3420710  50.7891660   8.3687630  49.6110370  51.3149640
   8.0798370  50.0234350  49.8872650   7.9699700  60.4545820  44.3977690
   8.6898820  60.9501110  44.0073800   7.7681520  59.7763710  43.7531560
   3.4309640  51.8483780  38.5407080   2.6174250  51.3496950  38.4652390
   3.2371590  52.6882030  38.1243430   3.3518500  60.5254880  50.2846690
   3.2855810  59.6050550  50.0304280   2.7223640  60.6230320  50.9991330
   6.1458030  56.2203430  36.8369240   7.0337650  56.5320660  36.6620580
   6.1163120  55.3475680  36.4449820   3.2835230  63.3475450  50.0350490
   3.2979770  62.4156410  49.8169400   2.5760330  63.4335210  50.6740260
   8.4172300  57.5315270  36.3049100   8.3336020  57.9629490  35.4545540
   9.1366490  57.9913620  36.7375920   9.4946440  59.9882790  49.3819070
   8.7694630  60.5811570  49.1848460  10.0221900  59.9806330  48.5832440
   9.4459550  64.3857530  39.0331230   8.8035710  63.7313150  39.3074950
   9.0590210  64.7912620  38.2571900   5.0246030  61.7142960  42.8802920
   5.3769850  61.1171090  42.2204290   4.1408360  61.3887190  43.0511170
   2.7169130  64.9893020  47.1290990   3.3611350  65.1952400  47.8064410
   3.0798570  64.2281420  46.6761840   3.9901210  62.9925370  45.8468440
   4.6323440  62.2918530  45.9600610   4.5150560  63.7723810  45.6665330
   7.8356930  63.2773990  35.5707580   7.6094510  62.5604430  36.1632220
   7.4453130  63.0286430  34.7329330   5.7638830  63.7920270  49.0504500
   6.0995070  64.3786960  49.7282420   4.8439170  63.6612980  49.2802290
   7.4173180  61.1945930  37.2321740   7.1294880  61.6558620  38.0199620
   8.2125350  60.7343700  37.5005960   4.8081010  54.0737760  47.5829360
   5.1761830  53.2532970  47.9108930   3.9479210  54.1339650  47.9985010
   8.1743040  53.0294700  38.3916920   7.5456200  53.1340370  37.6775150
   7.6794960  53.2491480  39.1810800   2.6201180  64.7500290  35.8250900
   2.7213160  64.5464280  34.8952880   1.7202920  64.4958570  36.0298680
   1.7683000  56.7277350  47.8067330   2.2668250  57.2023170  48.4719180
   1.9105950  55.8040870  48.0137360   4.1742500  52.0331310  41.2470590
   4.0510280  52.0517440  40.2980100   5.1227060  52.0810250  41.3668990
   8.9749860  52.9445310  48.6495720   8.4723460  53.6850710  48.9889530
   9.7906520  53.3329310  48.3332510   7.2671870  58.1878490  42.0957080
   6.3262010  58.2028720  42.2704770   7.5815940  57.4014450  42.5417380
   9.2697450  65.3587340  43.7711340   9.3944870  66.1818510  44.2435150
  10.1363010  65.1478070  43.4235490   4.5837890  62.7444490  52.5789460
   3.9776050  62.7676090  51.8385210   4.2792000  62.0127530  53.1156710
   6.0138260  66.4724780  51.1898870   6.9660010  66.3882800  51.1399110
   5.8666480  67.1366490  51.8632660   8.9047460  65.8518990  36.6890780
   8.6188970  65.4384130  35.8744960   8.7067010  66.7806700  36.5691300
   3.6097420  60.9072300  35.7338380   3.0607520  61.3541600  36.3781120
   4.2316680  60.4021550  36.2576050   7.6632360  62.2614400  51.6660640
   8.4041830  62.5990160  51.1628100   6.9005040  62.4306460  51.1130410
   1.7900180  58.8900830  34.8780780   2.3105840  58.1749850  34.5121930
   2.4368580  59.5286700  35.1781290   6.3378020  60.3129230  50.2015850
   6.7519040  60.4674310  51.0506270   5.4029020  60.4384450  50.3641630
   6.8100190  57.6525390  52.2055000   7.3920960  56.8977710  52.1175480
   6.9861960  58.1832830  51.4286480   3.4357150  57.9965890  49.5549620
   3.5553360  57.4007030  50.2944460   4.2951150  58.0335580  49.1350920
   5.7745050  58.5503080  48.1312130   5.2480270  59.0745700  47.5277270
   6.1176390  59.1830470  48.7621860   5.0219350  54.1553050  51.0458460
   4.3334870  53.4934590  50.9808450   5.7425370  53.7091320  51.4906920
   5.6519750  50.7504680  37.1048720   5.9322040  49.9072580  37.4608140
   4.8785480  50.9827790  37.6187470   2.3548210  66.9712440  37.1682520
   3.2499000  67.3097410  37.1901280   2.3865840  66.2491850  36.5406800
   9.3342560  65.5016110  49.8748720   8.7344550  65.5608670  49.1312640
   9.4636460  64.5621090  50.0045570  10.5744010  63.2433930  35.2118430
   9.7436970  63.3110580  35.6825660  10.7515840  64.1338050  34.9085290
  10.0300470  59.9881410  37.7152630  10.7919380  60.5578060  37.8212320
  10.0454840  59.4208610  38.4860940  11.0360440  60.8431510  42.5594560
  11.4069270  60.0598830  42.1530530  11.6762370  61.5320610  42.3811860
   8.0194200  62.2268090  47.9724880   7.2054040  62.6565250  48.2350670
   8.4268400  62.8386500  47.3593930  10.0819640  60.2815780  34.8725150
  10.3568480  61.1894660  34.7444370   9.8930380  60.2178310  35.8087140
   6.4795250  53.3060630  36.1678780   6.8980130  53.1191610  35.3275440
   6.1731310  52.4539680  36.4781710   9.9784980  58.2184770  39.8654580
   9.6028580  57.4512700  39.4335870   9.2488100  58.6007470  40.3529510
   9.3684600  57.3656290  49.4994100   9.1370690  57.1369040  48.5992050
   9.6289150  58.2855840  49.4538990   7.8072670  52.5912720  52.2773800
   8.6842850  52.5996120  52.6607800   7.8193510  51.8543560  51.6666150
   9.2535940  56.4442260  43.1661820   9.7773420  55.9504910  42.5351990
   9.8395360  56.5792620  43.9109390   9.4325660  56.5282130  46.6881370
   8.4828370  56.4945670  46.8026360   9.6138670  57.4382240  46.4531140
   8.7435910  55.7015610  39.1054230   9.2395030  55.4686480  39.8903110
   8.5451980  54.8627450  38.6891870  10.1723070  54.3376560  41.6391910
  10.0622350  54.1832600  42.5774180  10.9330660  53.8097500  41.3967320
   8.5188790  50.2770690  48.0974910   9.1561010  50.8904830  48.4634100
   8.6663680  50.3131350  47.1524140  11.0613340  52.1684480  34.8798050
  11.9862650  52.0365660  34.6716340  11.0389130  52.2477300  35.8334500
  11.1351830  52.9395140  37.5054760  10.3403330  52.8740260  38.0347670
  11.3395110  53.8745780  37.4940110   8.0770250  66.9786690  41.4993150
   8.6729320  66.6571260  40.8227570   8.3348400  66.5058510  42.2906420
   1.8893270  51.4296880  51.0050010   1.8282160  52.0218710  51.7545420
   2.8293650  51.3222840  50.8600270   4.5267830  51.0866940  50.6442300
   5.1408240  51.4046230  49.9823380   5.0717390  50.6015530  51.2638160
  10.9443010  66.9858570  48.0504140  10.4501290  67.3827440  47.3331270
  10.3356300  66.3607780  48.4441420   5.2675870  49.6499080  46.9711590
   4.3935710  49.9834190  46.7684520   5.1586620  49.1772260  47.7963460
   6.1747850  51.8569950  48.3553310   5.8461210  51.0421710  47.9755040
   7.1230150  51.8139760  48.2319000   8.6282460  67.6281990  45.3290880
   8.1685430  68.3797800  44.9548900   7.9994920  66.9088460  45.2705680
   1.7973680  66.8278720  45.3307990   2.0851490  66.5733020  44.4541000
   2.3096900  66.2756080  45.9213560   3.0150690  50.5668920  45.9104500
   2.2322480  51.0414420  46.1901260   2.7213620  49.6623750  45.8017680
   7.5671760  51.2692020  43.9553590   8.0079850  51.2137120  43.1075190
   7.2979350  52.1850030  44.0263770   9.4310330  50.9007260  41.9662410
   9.3698730  49.9568480  41.8193430  10.2102360  51.0087350  42.5115870
   5.4029890  49.6498120  42.6603600   6.0059260  50.2218330  43.1352120
   4.6622880  50.2137560  42.4377500   8.5464490  50.0519680  37.9343880
   8.7415120  50.9503130  38.2011310   7.7594360  49.8206760  38.4276830
   1.8646040  67.7494820  52.6976190   2.7913350  67.5139090  52.7412150
   1.8496470  68.5766820  52.2162220  10.0991100  67.2920390  39.6950440
  10.2743290  66.6058130  39.0511360   9.4012670  67.8167440  39.3027110
   5.6525110  49.8293150  53.0398540   5.5390560  50.1487760  53.9350060
   6.4694850  50.2305660  52.7435820   8.4323600  66.9764680  52.5217230
   9.2248920  66.4813910  52.3143190   8.7256750  67.6554820  53.1292840
   4.5583260  57.8485620  23.4033280   4.4777310  56.9340230  23.1324990
   4.1447680  58.3452690  22.6972990   2.6901300  59.6264640  25.2842550
   1.9143400  59.1465080  25.5741120   3.3414230  58.9470290  25.1098710
   6.7108730  64.0324830  24.0641680   6.2490260  63.2612070  24.3928850
   7.5234280  64.0590900  24.5694130   2.9372040  66.3182840  23.6845670
   2.3183480  66.7740340  23.1140110   3.7923820  66.4734300  23.2835370
   2.1310290  62.3021830  25.2912710   2.0618570  61.3611770  25.1301840
   2.8930150  62.3923240  25.8635280   3.1615460  55.1092210  25.5181640
   3.5380280  54.2364090  25.4055310   3.0634970  55.4450910  24.6272080
   6.9439580  52.6042650  22.4509980   7.7649200  52.1139220  22.4935460
   6.9773660  53.1940310  23.2041820  11.2339130  54.6209400  29.0153610
  10.5291300  55.0091110  28.4968720  11.4997050  55.3159690  29.6174540
   3.8035390  61.2022080  21.0777580   3.1852660  61.6671530  20.5140300
   4.3158640  61.8949560  21.4947090   7.1801060  54.5443030  25.2237520
   6.4756630  54.8327920  25.8040630   7.5413220  55.3543140  24.8637080
   8.7963840  64.1618160  27.4865000   8.1127360  64.8317270  27.4781670
   9.3358130  64.3598810  26.7209860  10.2487980  53.9897820  25.6146730
   9.3012890  54.0236800  25.7462160  10.5737970  54.8036770  25.9996090
   6.3322580  66.0062290  26.2010180   6.3449740  65.6024580  25.3332440
   5.7797800  66.7809580  26.0971610   7.6268000  62.7278510  21.2900350
   7.5164330  61.7852840  21.4149770   7.6236250  63.0894150  22.1763110
   5.7308020  60.9092130  27.5292790   6.1476810  60.6952240  26.6946250
   6.4547840  61.1664920  28.1001410   3.1688280  58.3543830  20.6462840
   2.2417560  58.2881210  20.8751310   3.3213100  59.2923960  20.5318080
   3.1557360  54.6260830  17.6430000   2.2161030  54.7874790  17.7282460
   3.4740620  55.3446510  17.0965990   9.6770120  59.3079350  27.6209030
   8.8488750  59.3772440  27.1459160  10.2720600  59.8933660  27.1524860
   7.1985570  59.9164130  21.1498090   6.5797990  59.5783680  20.5024390
   7.1810020  59.2723890  21.8577280   6.6412130  56.0948670  28.5663900
   6.2283310  56.9202380  28.8203890   5.9088080  55.5093710  28.3740260
   7.3312230  66.1408000  29.2544880   6.8542790  66.9480190  29.0617490
   6.6474020  65.4886330  29.4071090   5.3750270  59.1550940  18.1570840
   5.8143550  58.3173370  18.0108660   6.0878690  59.7880340  18.2434980
   3.4845650  64.0947010  22.1252080   3.9241560  64.8371340  21.7107470
   3.4232540  64.3373580  23.0491040   8.9567410  50.4093750  16.4711880
   8.6440070  50.5020580  17.3710950   9.7179880  50.9874780  16.4209310
  10.9111440  65.9019940  34.3236270  11.3871160  66.3802830  35.0025350
  11.5318600  65.8337430  33.5981770  10.3144690  63.0932790  31.4836280
  10.4407750  62.8544670  30.5653460  10.3566070  62.2617330  31.9558360
   4.1761430  66.7960790  30.0531090   4.6906100  66.7068800  30.8553520
   3.3330510  67.1420490  30.3459000   6.1515830  67.0816130  19.4815090
   5.9916970  66.7919070  20.3796920   5.9862540  66.3056260  18.9460320
   5.8541960  64.5903690  18.0413090   5.1607120  64.5880980  17.3815370
   6.5964820  64.1663010  17.6107260   5.4191890  66.2166400  22.1161580
   5.8748840  65.4355780  22.4300200   5.7584410  66.9273220  22.6602760
  10.1668700  55.1465250  32.4486020   9.5512970  55.6544920  31.9201480
   9.8465120  54.2463580  32.3911960   2.2283020  53.9857140  29.9148210
   1.7662390  54.1940160  30.7268150   1.8261130  53.1716490  29.6118880
   7.2287530  55.2066090  31.0444870   6.3781120  54.9071840  31.3653940
   7.0689320  55.4508100  30.1328690   4.3237240  56.7067840  33.1443660
   4.6490650  55.8731590  32.8045890   5.1117570  57.2296360  33.2921990
   4.9625190  56.2485560  20.6384790   4.3634080  56.9721360  20.4548410
   5.5104800  56.1862340  19.8561240   3.5690060  54.8849100  22.6688070
   3.9619630  55.2021300  21.8556760   3.9306910  54.0060980  22.7832590
   4.1545200  57.4754850  26.7638850   3.4226320  57.9841660  27.1128950
   3.7569540  56.6584830  26.4627630   4.6171110  52.9288530  26.1761790
   4.6343850  53.3797180  27.0203640   4.3686690  52.0294170  26.3895230
   8.0441860  50.3420710  32.0148170   8.3687630  49.6110370  32.5406150
   8.0798370  50.0234350  31.1129160   7.9699700  60.4545820  25.6234200
   8.6898820  60.9501110  25.2330310   7.7681520  59.7763710  24.9788070
   3.4309640  51.8483780  19.7663590   2.6174250  51.3496950  19.6908900
   3.2371590  52.6882030  19.3499940   3.3518500  60.5254880  31.5103200
   3.2855810  59.6050550  31.2560790   2.7223640  60.6230320  32.2247840
   6.1458030  56.2203430  18.0625750   7.0337650  56.5320660  17.8877090
   6.1163120  55.3475680  17.6706330   3.2835230  63.3475450  31.2607000
   3.2979770  62.4156410  31.0425910   2.5760330  63.4335210  31.8996770
   8.4172300  57.5315270  17.5305610   8.3336020  57.9629490  16.6802050
   9.1366490  57.9913620  17.9632430   9.4946440  59.9882790  30.6075580
   8.7694630  60.5811570  30.4104970  10.0221900  59.9806330  29.8088950
   9.4459550  64.3857530  20.2587740   8.8035710  63.7313150  20.5331460
   9.0590210  64.7912620  19.4828410   5.0246030  61.7142960  24.1059430
   5.3769850  61.1171090  23.4460800   4.1408360  61.3887190  24.2767680
   2.7169130  64.9893020  28.3547500   3.3611350  65.1952400  29.0320920
   3.0798570  64.2281420  27.9018350   3.9901210  62.9925370  27.0724950
   4.6323440  62.2918530  27.1857120   4.5150560  63.7723810  26.8921840
   7.8356930  63.2773990  16.7964090   7.6094510  62.5604430  17.3888730
   7.4453130  63.0286430  15.9585840   5.7638830  63.7920270  30.2761010
   6.0995070  64.3786960  30.9538930   4.8439170  63.6612980  30.5058800
   7.4173180  61.1945930  18.4578250   7.1294880  61.6558620  19.2456130
   8.2125350  60.7343700  18.7262470   4.8081010  54.0737760  28.8085870
   5.1761830  53.2532970  29.1365440   3.9479210  54.1339650  29.2241520
   8.1743040  53.0294700  19.6173430   7.5456200  53.1340370  18.9031660
   7.6794960  53.2491480  20.4067310   2.6201180  64.7500290  17.0507410
   2.7213160  64.5464280  16.1209390   1.7202920  64.4958570  17.2555190
   1.7683000  56.7277350  29.0323840   2.2668250  57.2023170  29.6975690
   1.9105950  55.8040870  29.2393870   4.1742500  52.0331310  22.4727100
   4.0510280  52.0517440  21.5236610   5.1227060  52.0810250  22.5925500
   8.9749860  52.9445310  29.8752230   8.4723460  53.6850710  30.2146040
   9.7906520  53.3329310  29.5589020   7.2671870  58.1878490  23.3213590
   6.3262010  58.2028720  23.4961280   7.5815940  57.4014450  23.7673890
   9.2697450  65.3587340  24.9967850   9.3944870  66.1818510  25.4691660
  10.1363010  65.1478070  24.6492000   4.5837890  62.7444490  33.8045970
   3.9776050  62.7676090  33.0641720   4.2792000  62.0127530  34.3413220
   6.0138260  66.4724780  32.4155380   6.9660010  66.3882800  32.3655620
   5.8666480  67.1366490  33.0889170   8.9047460  65.8518990  17.9147290
   8.6188970  65.4384130  17.1001470   8.7067010  66.7806700  17.7947810
   3.6097420  60.9072300  16.9594890   3.0607520  61.3541600  17.6037630
   4.2316680  60.4021550  17.4832560   7.6632360  62.2614400  32.8917150
   8.4041830  62.5990160  32.3884610   6.9005040  62.4306460  32.3386920
   1.7900180  58.8900830  16.1037290   2.3105840  58.1749850  15.7378440
   2.4368580  59.5286700  16.4037800   6.3378020  60.3129230  31.4272360
   6.7519040  60.4674310  32.2762780   5.4029020  60.4384450  31.5898140
   6.8100190  57.6525390  33.4311510   7.3920960  56.8977710  33.3431990
   6.9861960  58.1832830  32.6542990   3.4357150  57.9965890  30.7806130
   3.5553360  57.4007030  31.5200970   4.2951150  58.0335580  30.3607430
   5.7745050  58.5503080  29.3568640   5.2480270  59.0745700  28.7533780
   6.1176390  59.1830470  29.9878370   5.0219350  54.1553050  32.2714970
   4.3334870  53.4934590  32.2064960   5.7425370  53.7091320  32.7163430
   5.6519750  50.7504680  18.3305230   5.9322040  49.9072580  18.6864650
   4.8785480  50.9827790  18.8443980   2.3548210  66.9712440  18.3939030
   3.2499000  67.3097410  18.4157790   2.3865840  66.2491850  17.7663310
   9.3342560  65.5016110  31.1005230   8.7344550  65.5608670  30.3569150
   9.4636460  64.5621090  31.2302080  10.5744010  63.2433930  16.4374940
   9.7436970  63.3110580  16.9082170  10.7515840  64.1338050  16.1341800
  10.0300470  59.9881410  18.9409140  10.7919380  60.5578060  19.0468830
  10.0454840  59.4208610  19.7117450  11.0360440  60.8431510  23.7851070
  11.4069270  60.0598830  23.3787040  11.6762370  61.5320610  23.6068370
   8.0194200  62.2268090  29.1981390   7.2054040  62.6565250  29.4607180
   8.4268400  62.8386500  28.5850440  10.0819640  60.2815780  16.0981660
  10.3568480  61.1894660  15.9700880   9.8930380  60.2178310  17.0343650
   6.4795250  53.3060630  17.3935290   6.8980130  53.1191610  16.5531950
   6.1731310  52.4539680  17.7038220   9.9784980  58.2184770  21.0911090
   9.6028580  57.4512700  20.6592380   9.2488100  58.6007470  21.5786020
   9.3684600  57.3656290  30.7250610   9.1370690  57.1369040  29.8248560
   9.6289150  58.2855840  30.6795500   7.8072670  52.5912720  33.5030310
   8.6842850  52.5996120  33.8864310   7.8193510  51.8543560  32.8922660
   9.2535940  56.4442260  24.3918330   9.7773420  55.9504910  23.7608500
   9.8395360  56.5792620  25.1365900   9.4325660  56.5282130  27.9137880
   8.4828370  56.4945670  28.0282870   9.6138670  57.4382240  27.6787650
   8.7435910  55.7015610  20.3310740   9.2395030  55.4686480  21.1159620
   8.5451980  54.8627450  19.9148380  10.1723070  54.3376560  22.8648420
  10.0622350  54.1832600  23.8030690  10.9330660  53.8097500  22.6223830
   8.5188790  50.2770690  29.3231420   9.1561010  50.8904830  29.6890610
   8.6663680  50.3131350  28.3780650  11.0613340  52.1684480  16.1054560
  11.9862650  52.0365660  15.8972850  11.0389130  52.2477300  17.0591010
  11.1351830  52.9395140  18.7311270  10.3403330  52.8740260  19.2604180
  11.3395110  53.8745780  18.7196620   8.0770250  66.9786690  22.7249660
   8.6729320  66.6571260  22.0484080   8.3348400  66.5058510  23.5162930
   1.8893270  51.4296880  32.2306520   1.8282160  52.0218710  32.9801930
   2.8293650  51.3222840  32.0856780   4.5267830  51.0866940  31.8698810
   5.1408240  51.4046230  31.2079890   5.0717390  50.6015530  32.4894670
  10.9443010  66.9858570  29.2760650  10.4501290  67.3827440  28.5587780
  10.3356300  66.3607780  29.6697930   5.2675870  49.6499080  28.1968100
   4.3935710  49.9834190  27.9941030   5.1586620  49.1772260  29.0219970
   6.1747850  51.8569950  29.5809820   5.8461210  51.0421710  29.2011550
   7.1230150  51.8139760  29.4575510   8.6282460  67.6281990  26.5547390
   8.1685430  68.3797800  26.1805410   7.9994920  66.9088460  26.4962190
   1.7973680  66.8278720  26.5564500   2.0851490  66.5733020  25.6797510
   2.3096900  66.2756080  27.1470070   3.0150690  50.5668920  27.1361010
   2.2322480  51.0414420  27.4157770   2.7213620  49.6623750  27.0274190
   7.5671760  51.2692020  25.1810100   8.0079850  51.2137120  24.3331700
   7.2979350  52.1850030  25.2520280   9.4310330  50.9007260  23.1918920
   9.3698730  49.9568480  23.0449940  10.2102360  51.0087350  23.7372380
   5.4029890  49.6498120  23.8860110   6.0059260  50.2218330  24.3608630
   4.6622880  50.2137560  23.6634010   8.5464490  50.0519680  19.1600390
   8.7415120  50.9503130  19.4267820   7.7594360  49.8206760  19.6533340
   1.8646040  67.7494820  33.9232700   2.7913350  67.5139090  33.9668660
   1.8496470  68.5766820  33.4418730  10.0991100  67.2920390  20.9206950
  10.2743290  66.6058130  20.2767870   9.4012670  67.8167440  20.5283620
   5.6525110  49.8293150  34.2655050   5.5390560  50.1487760  35.1606570
   6.4694850  50.2305660  33.9692330   8.4323600  66.9764680  33.7473740
   9.2248920  66.4813910  33.5399700   8.7256750  67.6554820  34.3549350
   4.5583260  57.8485620   4.6289790   4.4777310  56.9340230   4.3581500
   4.1447680  58.3452690   3.9229500   2.6901300  59.6264640   6.5099060
   1.9143400  59.1465080   6.7997630   3.3414230  58.9470290   6.3355220
   6.7108730  64.0324830   5.2898190   6.2490260  63.2612070   5.6185360
   7.5234280  64.0590900   5.7950640   2.9372040  66.3182840   4.9102180
   2.3183480  66.7740340   4.3396620   3.7923820  66.4734300   4.5091880
   2.1310290  62.3021830   6.5169220   2.0618570  61.3611770   6.3558350
   2.8930150  62.3923240   7.0891790   3.1615460  55.1092210   6.7438150
   3.5380280  54.2364090   6.6311820   3.0634970  55.4450910   5.8528590
   6.9439580  52.6042650   3.6766490   7.7649200  52.1139220   3.7191970
   6.9773660  53.1940310   4.4298330  11.2339130  54.6209400  10.2410120
  10.5291300  55.0091110   9.7225230  11.4997050  55.3159690  10.8431050
   3.8035390  61.2022080   2.3034090   3.1852660  61.6671530   1.7396810
   4.3158640  61.8949560   2.7203600   7.1801060  54.5443030   6.4494030
   6.4756630  54.8327920   7.0297140   7.5413220  55.3543140   6.0893590
   8.7963840  64.1618160   8.7121510   8.1127360  64.8317270   8.7038180
   9.3358130  64.3598810   7.9466370  10.2487980  53.9897820   6.8403240
   9.3012890  54.0236800   6.9718670  10.5737970  54.8036770   7.2252600
   6.3322580  66.0062290   7.4266690   6.3449740  65.6024580   6.5588950
   5.7797800  66.7809580   7.3228120   7.6268000  62.7278510   2.5156860
   7.5164330  61.7852840   2.6406280   7.6236250  63.0894150   3.4019620
   5.7308020  60.9092130   8.7549300   6.1476810  60.6952240   7.9202760
   6.4547840  61.1664920   9.3257920   3.1688280  58.3543830   1.8719350
   2.2417560  58.2881210   2.1007820   3.3213100  59.2923960   1.7574590
   9.6770120  59.3079350   8.8465540   8.8488750  59.3772440   8.3715670
  10.2720600  59.8933660   8.3781370   7.1985570  59.9164130   2.3754600
   6.5797990  59.5783680   1.7280900   7.1810020  59.2723890   3.0833790
   6.6412130  56.0948670   9.7920410   6.2283310  56.9202380  10.0460400
   5.9088080  55.5093710   9.5996770   7.3312230  66.1408000  10.4801390
   6.8542790  66.9480190  10.2874000   6.6474020  65.4886330  10.6327600
   3.4845650  64.0947010   3.3508590   3.9241560  64.8371340   2.9363980
   3.4232540  64.3373580   4.2747550  10.9111440  65.9019940  15.5492780
  11.3871160  66.3802830  16.2281860  11.5318600  65.8337430  14.8238280
  10.3144690  63.0932790  12.7092790  10.4407750  62.8544670  11.7909970
  10.3566070  62.2617330  13.1814870   4.1761430  66.7960790  11.2787600
   4.6906100  66.7068800  12.0810030   3.3330510  67.1420490  11.5715510
   5.4191890  66.2166400   3.3418090   5.8748840  65.4355780   3.6556710
   5.7584410  66.9273220   3.8859270  10.1668700  55.1465250  13.6742530
   9.5512970  55.6544920  13.1457990   9.8465120  54.2463580  13.6168470
   2.2283020  53.9857140  11.1404720   1.7662390  54.1940160  11.9524660
   1.8261130  53.1716490  10.8375390   7.2287530  55.2066090  12.2701380
   6.3781120  54.9071840  12.5910450   7.0689320  55.4508100  11.3585200
   4.3237240  56.7067840  14.3700170   4.6490650  55.8731590  14.0302400
   5.1117570  57.2296360  14.5178500   3.5690060  54.8849100   3.8944580
   3.9619630  55.2021300   3.0813270   3.9306910  54.0060980   4.0089100
   4.1545200  57.4754850   7.9895360   3.4226320  57.9841660   8.3385460
   3.7569540  56.6584830   7.6884140   4.6171110  52.9288530   7.4018300
   4.6343850  53.3797180   8.2460150   4.3686690  52.0294170   7.6151740
   8.0441860  50.3420710  13.2404680   8.3687630  49.6110370  13.7662660
   8.0798370  50.0234350  12.3385670   7.9699700  60.4545820   6.8490710
   8.6898820  60.9501110   6.4586820   7.7681520  59.7763710   6.2044580
   3.3518500  60.5254880  12.7359710   3.2855810  59.6050550  12.4817300
   2.7223640  60.6230320  13.4504350   3.2835230  63.3475450  12.4863510
   3.2979770  62.4156410  12.2682420   2.5760330  63.4335210  13.1253280
   9.4946440  59.9882790  11.8332090   8.7694630  60.5811570  11.6361480
  10.0221900  59.9806330  11.0345460   5.0246030  61.7142960   5.3315940
   5.3769850  61.1171090   4.6717310   4.1408360  61.3887190   5.5024190
   2.7169130  64.9893020   9.5804010   3.3611350  65.1952400  10.2577430
   3.0798570  64.2281420   9.1274860   3.9901210  62.9925370   8.2981460
   4.6323440  62.2918530   8.4113630   4.5150560  63.7723810   8.1178350
   5.7638830  63.7920270  11.5017520   6.0995070  64.3786960  12.1795440
   4.8439170  63.6612980  11.7315310   4.8081010  54.0737760  10.0342380
   5.1761830  53.2532970  10.3621950   3.9479210  54.1339650  10.4498030
   1.7683000  56.7277350  10.2580350   2.2668250  57.2023170  10.9232200
   1.9105950  55.8040870  10.4650380   4.1742500  52.0331310   3.6983610
   4.0510280  52.0517440   2.7493120   5.1227060  52.0810250   3.8182010
   8.9749860  52.9445310  11.1008740   8.4723460  53.6850710  11.4402550
   9.7906520  53.3329310  10.7845530   7.2671870  58.1878490   4.5470100
   6.3262010  58.2028720   4.7217790   7.5815940  57.4014450   4.9930400
   9.2697450  65.3587340   6.2224360   9.3944870  66.1818510   6.6948170
  10.1363010  65.1478070   5.8748510   4.5837890  62.7444490  15.0302480
   3.9776050  62.7676090  14.2898230   4.2792000  62.0127530  15.5669730
   6.0138260  66.4724780  13.6411890   6.9660010  66.3882800  13.5912130
   5.8666480  67.1366490  14.3145680   7.6632360  62.2614400  14.1173660
   8.4041830  62.5990160  13.6141120   6.9005040  62.4306460  13.5643430
   6.3378020  60.3129230  12.6528870   6.7519040  60.4674310  13.5019290
   5.4029020  60.4384450  12.8154650   6.8100190  57.6525390  14.6568020
   7.3920960  56.8977710  14.5688500   6.9861960  58.1832830  13.8799500
   3.4357150  57.9965890  12.0062640   3.5553360  57.4007030  12.7457480
   4.2951150  58.0335580  11.5863940   5.7745050  58.5503080  10.5825150
   5.2480270  59.0745700   9.9790290   6.1176390  59.1830470  11.2134880
   5.0219350  54.1553050  13.4971480   4.3334870  53.4934590  13.4321470
   5.7425370  53.7091320  13.9419940   9.3342560  65.5016110  12.3261740
   8.7344550  65.5608670  11.5825660   9.4636460  64.5621090  12.4558590
  11.0360440  60.8431510   5.0107580  11.4069270  60.0598830   4.6043550
  11.6762370  61.5320610   4.8324880   8.0194200  62.2268090  10.4237900
   7.2054040  62.6565250  10.6863690   8.4268400  62.8386500   9.8106950
   9.9784980  58.2184770   2.3167600   9.6028580  57.4512700   1.8848890
   9.2488100  58.6007470   2.8042530   9.3684600  57.3656290  11.9507120
   9.1370690  57.1369040  11.0505070   9.6289150  58.2855840  11.9052010
   7.8072670  52.5912720  14.7286820   8.6842850  52.5996120  15.1120820
   7.8193510  51.8543560  14.1179170   9.2535940  56.4442260   5.6174840
   9.7773420  55.9504910   4.9865010   9.8395360  56.5792620   6.3622410
   9.4325660  56.5282130   9.1394390   8.4828370  56.4945670   9.2539380
   9.6138670  57.4382240   8.9044160  10.1723070  54.3376560   4.0904930
  10.0622350  54.1832600   5.0287200  10.9330660  53.8097500   3.8480340
   8.5188790  50.2770690  10.5487930   9.1561010  50.8904830  10.9147120
   8.6663680  50.3131350   9.6037160   8.0770250  66.9786690   3.9506170
   8.6729320  66.6571260   3.2740590   8.3348400  66.5058510   4.7419440
   1.8893270  51.4296880  13.4563030   1.8282160  52.0218710  14.2058440
   2.8293650  51.3222840  13.3113290   4.5267830  51.0866940  13.0955320
   5.1408240  51.4046230  12.4336400   5.0717390  50.6015530  13.7151180
  10.9443010  66.9858570  10.5017160  10.4501290  67.3827440   9.7844290
  10.3356300  66.3607780  10.8954440   5.2675870  49.6499080   9.4224610
   4.3935710  49.9834190   9.2197540   5.1586620  49.1772260  10.2476480
   6.1747850  51.8569950  10.8066330   5.8461210  51.0421710  10.4268060
   7.1230150  51.8139760  10.6832020   8.6282460  67.6281990   7.7803900
   8.1685430  68.3797800   7.4061920   7.9994920  66.9088460   7.7218700
   1.7973680  66.8278720   7.7821010   2.0851490  66.5733020   6.9054020
   2.3096900  66.2756080   8.3726580   3.0150690  50.5668920   8.3617520
   2.2322480  51.0414420   8.6414280   2.7213620  49.6623750   8.2530700
   7.5671760  51.2692020   6.4066610   8.0079850  51.2137120   5.5588210
   7.2979350  52.1850030   6.4776790   9.4310330  50.9007260   4.4175430
   9.3698730  49.9568480   4.2706450  10.2102360  51.0087350   4.9628890
   5.4029890  49.6498120   5.1116620   6.0059260  50.2218330   5.5865140
   4.6622880  50.2137560   4.8890520   1.8646040  67.7494820  15.1489210
   2.7913350  67.5139090  15.1925170   1.8496470  68.5766820  14.6675240
  10.0991100  67.2920390   2.1463460  10.2743290  66.6058130   1.5024380
   9.4012670  67.8167440   1.7540130   5.6525110  49.8293150  15.4911560
   5.5390560  50.1487760  16.3863080   6.4694850  50.2305660  15.1948840
   8.4323600  66.9764680  14.9730250   9.2248920  66.4813910  14.7656210
   8.7256750  67.6554820  15.5805860   4.5583260  39.0742130  79.7263750
   4.4777310  38.1596740  79.4555460   4.1447680  39.5709200  79.0203460
   2.6901300  40.8521150  81.6073020   1.9143400  40.3721590  81.8971590
   3.3414230  40.1726800  81.4329180   6.7108730  45.2581340  80.3872150
   6.2490260  44.4868580  80.7159320   7.5234280  45.2847410  80.8924600
   2.9372040  47.5439350  80.0076140   2.3183480  47.9996850  79.4370580
   3.7923820  47.6990810  79.6065840   2.1310290  43.5278340  81.6143180
   2.0618570  42.5868280  81.4532310   2.8930150  43.6179750  82.1865750
   3.1615460  36.3348720  81.8412110   3.5380280  35.4620600  81.7285780
   3.0634970  36.6707420  80.9502550   6.9439580  33.8299160  78.7740450
   7.7649200  33.3395730  78.8165930   6.9773660  34.4196820  79.5272290
  11.2339130  35.8465910  85.3384080  10.5291300  36.2347620  84.8199190
  11.4997050  36.5416200  85.9405010   3.8035390  42.4278590  77.4008050
   3.1852660  42.8928040  76.8370770   4.3158640  43.1206070  77.8177560
   7.1801060  35.7699540  81.5467990   6.4756630  36.0584430  82.1271100
   7.5413220  36.5799650  81.1867550   8.7963840  45.3874670  83.8095470
   8.1127360  46.0573780  83.8012140   9.3358130  45.5855320  83.0440330
  10.2487980  35.2154330  81.9377200   9.3012890  35.2493310  82.0692630
  10.5737970  36.0293280  82.3226560   6.3322580  47.2318800  82.5240650
   6.3449740  46.8281090  81.6562910   5.7797800  48.0066090  82.4202080
   7.6268000  43.9535020  77.6130820   7.5164330  43.0109350  77.7380240
   7.6236250  44.3150660  78.4993580   5.7308020  42.1348640  83.8523260
   6.1476810  41.9208750  83.0176720   6.4547840  42.3921430  84.4231880
   3.1688280  39.5800340  76.9693310   2.2417560  39.5137720  77.1981780
   3.3213100  40.5180470  76.8548550   3.1557360  35.8517340  73.9660470
   2.2161030  36.0131300  74.0512930   3.4740620  36.5703020  73.4196460
   9.6770120  40.5335860  83.9439500   8.8488750  40.6028950  83.4689630
  10.2720600  41.1190170  83.4755330   7.1985570  41.1420640  77.4728560
   6.5797990  40.8040190  76.8254860   7.1810020  40.4980400  78.1807750
   6.6412130  37.3205180  84.8894370   6.2283310  38.1458890  85.1434360
   5.9088080  36.7350220  84.6970730   7.3312230  47.3664510  85.5775350
   6.8542790  48.1736700  85.3847960   6.6474020  46.7142840  85.7301560
   5.3750270  40.3807450  74.4801310   5.8143550  39.5429880  74.3339130
   6.0878690  41.0136850  74.5665450   3.4845650  45.3203520  78.4482550
   3.9241560  46.0627850  78.0337940   3.4232540  45.5630090  79.3721510
   8.9567410  31.6350260  72.7942350   8.6440070  31.7277090  73.6941420
   9.7179880  32.2131290  72.7439780   6.1515830  48.3072640  75.8045560
   5.9916970  48.0175580  76.7027390   5.9862540  47.5312770  75.2690790
   5.8541960  45.8160200  74.3643560   5.1607120  45.8137490  73.7045840
   6.5964820  45.3919520  73.9337730   5.4191890  47.4422910  78.4392050
   5.8748840  46.6612290  78.7530670   5.7584410  48.1529730  78.9833230
   4.9625190  37.4742070  76.9615260   4.3634080  38.1977870  76.7778880
   5.5104800  37.4118850  76.1791710   3.5690060  36.1105610  78.9918540
   3.9619630  36.4277810  78.1787230   3.9306910  35.2317490  79.1063060
   4.1545200  38.7011360  83.0869320   3.4226320  39.2098170  83.4359420
   3.7569540  37.8841340  82.7858100   4.6171110  34.1545040  82.4992260
   4.6343850  34.6053690  83.3434110   4.3686690  33.2550680  82.7125700
   7.9699700  41.6802330  81.9464670   8.6898820  42.1757620  81.5560780
   7.7681520  41.0020220  81.3018540   3.4309640  33.0740290  76.0894060
   2.6174250  32.5753460  76.0139370   3.2371590  33.9138540  75.6730410
   6.1458030  37.4459940  74.3856220   7.0337650  37.7577170  74.2107560
   6.1163120  36.5732190  73.9936800   8.4172300  38.7571780  73.8536080
   8.3336020  39.1886000  73.0032520   9.1366490  39.2170130  74.2862900
   9.4459550  45.6114040  76.5818210   8.8035710  44.9569660  76.8561930
   9.0590210  46.0169130  75.8058880   5.0246030  42.9399470  80.4289900
   5.3769850  42.3427600  79.7691270   4.1408360  42.6143700  80.5998150
   2.7169130  46.2149530  84.6777970   3.3611350  46.4208910  85.3551390
   3.0798570  45.4537930  84.2248820   3.9901210  44.2181880  83.3955420
   4.6323440  43.5175040  83.5087590   4.5150560  44.9980320  83.2152310
   7.8356930  44.5030500  73.1194560   7.6094510  43.7860940  73.7119200
   7.4453130  44.2542940  72.2816310   7.4173180  42.4202440  74.7808720
   7.1294880  42.8815130  75.5686600   8.2125350  41.9600210  75.0492940
   4.8081010  35.2994270  85.1316340   5.1761830  34.4789480  85.4595910
   3.9479210  35.3596160  85.5471990   8.1743040  34.2551210  75.9403900
   7.5456200  34.3596880  75.2262130   7.6794960  34.4747990  76.7297780
   2.6201180  45.9756800  73.3737880   2.7213160  45.7720790  72.4439860
   1.7202920  45.7215080  73.5785660   1.7683000  37.9533860  85.3554310
   2.2668250  38.4279680  86.0206160   1.9105950  37.0297380  85.5624340
   4.1742500  33.2587820  78.7957570   4.0510280  33.2773950  77.8467080
   5.1227060  33.3066760  78.9155970   7.2671870  39.4135000  79.6444060
   6.3262010  39.4285230  79.8191750   7.5815940  38.6270960  80.0904360
   9.2697450  46.5843850  81.3198320   9.3944870  47.4075020  81.7922130
  10.1363010  46.3734580  80.9722470   8.9047460  47.0775500  74.2377760
   8.6188970  46.6640640  73.4231940   8.7067010  48.0063210  74.1178280
   3.6097420  42.1328810  73.2825360   3.0607520  42.5798110  73.9268100
   4.2316680  41.6278060  73.8063030   1.7900180  40.1157340  72.4267760
   2.3105840  39.4006360  72.0608910   2.4368580  40.7543210  72.7268270
   5.6519750  31.9761190  74.6535700   5.9322040  31.1329090  75.0095120
   4.8785480  32.2084300  75.1674450   2.3548210  48.1968950  74.7169500
   3.2499000  48.5353920  74.7388260   2.3865840  47.4748360  74.0893780
  10.5744010  44.4690440  72.7605410   9.7436970  44.5367090  73.2312640
  10.7515840  45.3594560  72.4572270  10.0300470  41.2137920  75.2639610
  10.7919380  41.7834570  75.3699300  10.0454840  40.6465120  76.0347920
  11.0360440  42.0688020  80.1081540  11.4069270  41.2855340  79.7017510
  11.6762370  42.7577120  79.9298840   8.0194200  43.4524600  85.5211860
   7.2054040  43.8821760  85.7837650   8.4268400  44.0643010  84.9080910
  10.0819640  41.5072290  72.4212130  10.3568480  42.4151170  72.2931350
   9.8930380  41.4434820  73.3574120   6.4795250  34.5317140  73.7165760
   6.8980130  34.3448120  72.8762420   6.1731310  33.6796190  74.0268690
   9.9784980  39.4441280  77.4141560   9.6028580  38.6769210  76.9822850
   9.2488100  39.8263980  77.9016490   9.2535940  37.6698770  80.7148800
   9.7773420  37.1761420  80.0838970   9.8395360  37.8049130  81.4596370
   9.4325660  37.7538640  84.2368350   8.4828370  37.7202180  84.3513340
   9.6138670  38.6638750  84.0018120   8.7435910  36.9272120  76.6541210
   9.2395030  36.6942990  77.4390090   8.5451980  36.0883960  76.2378850
  10.1723070  35.5633070  79.1878890  10.0622350  35.4089110  80.1261160
  10.9330660  35.0354010  78.9454300   8.5188790  31.5027200  85.6461890
   9.1561010  32.1161340  86.0121080   8.6663680  31.5387860  84.7011120
  11.0613340  33.3940990  72.4285030  11.9862650  33.2622170  72.2203320
  11.0389130  33.4733810  73.3821480  11.1351830  34.1651650  75.0541740
  10.3403330  34.0996770  75.5834650  11.3395110  35.1002290  75.0427090
   8.0770250  48.2043200  79.0480130   8.6729320  47.8827770  78.3714550
   8.3348400  47.7315020  79.8393400  10.9443010  48.2115080  85.5991120
  10.4501290  48.6083950  84.8818250  10.3356300  47.5864290  85.9928400
   5.2675870  30.8755590  84.5198570   4.3935710  31.2090700  84.3171500
   5.1586620  30.4028770  85.3450440   6.1747850  33.0826460  85.9040290
   5.8461210  32.2678220  85.5242020   7.1230150  33.0396270  85.7805980
   8.6282460  48.8538500  82.8777860   8.1685430  49.6054310  82.5035880
   7.9994920  48.1344970  82.8192660   1.7973680  48.0535230  82.8794970
   2.0851490  47.7989530  82.0027980   2.3096900  47.5012590  83.4700540
   3.0150690  31.7925430  83.4591480   2.2322480  32.2670930  83.7388240
   2.7213620  30.8880260  83.3504660   7.5671760  32.4948530  81.5040570
   8.0079850  32.4393630  80.6562170   7.2979350  33.4106540  81.5750750
   9.4310330  32.1263770  79.5149390   9.3698730  31.1824990  79.3680410
  10.2102360  32.2343860  80.0602850   5.4029890  30.8754630  80.2090580
   6.0059260  31.4474840  80.6839100   4.6622880  31.4394070  79.9864480
   8.5464490  31.2776190  75.4830860   8.7415120  32.1759640  75.7498290
   7.7594360  31.0463270  75.9763810  10.0991100  48.5176900  77.2437420
  10.2743290  47.8314640  76.5998340   9.4012670  49.0423950  76.8514090
   4.5583260  39.0742130  60.9520260   4.4777310  38.1596740  60.6811970
   4.1447680  39.5709200  60.2459970   2.6901300  40.8521150  62.8329530
   1.9143400  40.3721590  63.1228100   3.3414230  40.1726800  62.6585690
   6.7108730  45.2581340  61.6128660   6.2490260  44.4868580  61.9415830
   7.5234280  45.2847410  62.1181110   2.9372040  47.5439350  61.2332650
   2.3183480  47.9996850  60.6627090   3.7923820  47.6990810  60.8322350
   2.1310290  43.5278340  62.8399690   2.0618570  42.5868280  62.6788820
   2.8930150  43.6179750  63.4122260   3.1615460  36.3348720  63.0668620
   3.5380280  35.4620600  62.9542290   3.0634970  36.6707420  62.1759060
   6.9439580  33.8299160  59.9996960   7.7649200  33.3395730  60.0422440
   6.9773660  34.4196820  60.7528800  11.2339130  35.8465910  66.5640590
  10.5291300  36.2347620  66.0455700  11.4997050  36.5416200  67.1661520
   3.8035390  42.4278590  58.6264560   3.1852660  42.8928040  58.0627280
   4.3158640  43.1206070  59.0434070   7.1801060  35.7699540  62.7724500
   6.4756630  36.0584430  63.3527610   7.5413220  36.5799650  62.4124060
   8.7963840  45.3874670  65.0351980   8.1127360  46.0573780  65.0268650
   9.3358130  45.5855320  64.2696840  10.2487980  35.2154330  63.1633710
   9.3012890  35.2493310  63.2949140  10.5737970  36.0293280  63.5483070
   6.3322580  47.2318800  63.7497160   6.3449740  46.8281090  62.8819420
   5.7797800  48.0066090  63.6458590   7.6268000  43.9535020  58.8387330
   7.5164330  43.0109350  58.9636750   7.6236250  44.3150660  59.7250090
   5.7308020  42.1348640  65.0779770   6.1476810  41.9208750  64.2433230
   6.4547840  42.3921430  65.6488390   3.1688280  39.5800340  58.1949820
   2.2417560  39.5137720  58.4238290   3.3213100  40.5180470  58.0805060
   3.1557360  35.8517340  55.1916980   2.2161030  36.0131300  55.2769440
   3.4740620  36.5703020  54.6452970   9.6770120  40.5335860  65.1696010
   8.8488750  40.6028950  64.6946140  10.2720600  41.1190170  64.7011840
   7.1985570  41.1420640  58.6985070   6.5797990  40.8040190  58.0511370
   7.1810020  40.4980400  59.4064260   6.6412130  37.3205180  66.1150880
   6.2283310  38.1458890  66.3690870   5.9088080  36.7350220  65.9227240
   7.3312230  47.3664510  66.8031860   6.8542790  48.1736700  66.6104470
   6.6474020  46.7142840  66.9558070   5.3750270  40.3807450  55.7057820
   5.8143550  39.5429880  55.5595640   6.0878690  41.0136850  55.7921960
   3.4845650  45.3203520  59.6739060   3.9241560  46.0627850  59.2594450
   3.4232540  45.5630090  60.5978020   8.9567410  31.6350260  54.0198860
   8.6440070  31.7277090  54.9197930   9.7179880  32.2131290  53.9696290
  10.9111440  47.1276450  71.8723250  11.3871160  47.6059340  72.5512330
  11.5318600  47.0593940  71.1468750  10.3144690  44.3189300  69.0323260
  10.4407750  44.0801180  68.1140440  10.3566070  43.4873840  69.5045340
   4.1761430  48.0217300  67.6018070   4.6906100  47.9325310  68.4040500
   3.3330510  48.3677000  67.8945980   6.1515830  48.3072640  57.0302070
   5.9916970  48.0175580  57.9283900   5.9862540  47.5312770  56.4947300
   5.8541960  45.8160200  55.5900070   5.1607120  45.8137490  54.9302350
   6.5964820  45.3919520  55.1594240   5.4191890  47.4422910  59.6648560
   5.8748840  46.6612290  59.9787180   5.7584410  48.1529730  60.2089740
  10.1668700  36.3721760  69.9973000   9.5512970  36.8801430  69.4688460
   9.8465120  35.4720090  69.9398940   2.2283020  35.2113650  67.4635190
   1.7662390  35.4196670  68.2755130   1.8261130  34.3973000  67.1605860
   7.2287530  36.4322600  68.5931850   6.3781120  36.1328350  68.9140920
   7.0689320  36.6764610  67.6815670   4.3237240  37.9324350  70.6930640
   4.6490650  37.0988100  70.3532870   5.1117570  38.4552870  70.8408970
   4.9625190  37.4742070  58.1871770   4.3634080  38.1977870  58.0035390
   5.5104800  37.4118850  57.4048220   3.5690060  36.1105610  60.2175050
   3.9619630  36.4277810  59.4043740   3.9306910  35.2317490  60.3319570
   4.1545200  38.7011360  64.3125830   3.4226320  39.2098170  64.6615930
   3.7569540  37.8841340  64.0114610   4.6171110  34.1545040  63.7248770
   4.6343850  34.6053690  64.5690620   4.3686690  33.2550680  63.9382210
   8.0441860  31.5677220  69.5635150   8.3687630  30.8366880  70.0893130
   8.0798370  31.2490860  68.6616140   7.9699700  41.6802330  63.1721180
   8.6898820  42.1757620  62.7817290   7.7681520  41.0020220  62.5275050
   3.4309640  33.0740290  57.3150570   2.6174250  32.5753460  57.2395880
   3.2371590  33.9138540  56.8986920   3.3518500  41.7511390  69.0590180
   3.2855810  40.8307060  68.8047770   2.7223640  41.8486830  69.7734820
   6.1458030  37.4459940  55.6112730   7.0337650  37.7577170  55.4364070
   6.1163120  36.5732190  55.2193310   3.2835230  44.5731960  68.8093980
   3.2979770  43.6412920  68.5912890   2.5760330  44.6591720  69.4483750
   8.4172300  38.7571780  55.0792590   8.3336020  39.1886000  54.2289030
   9.1366490  39.2170130  55.5119410   9.4946440  41.2139300  68.1562560
   8.7694630  41.8068080  67.9591950  10.0221900  41.2062840  67.3575930
   9.4459550  45.6114040  57.8074720   8.8035710  44.9569660  58.0818440
   9.0590210  46.0169130  57.0315390   5.0246030  42.9399470  61.6546410
   5.3769850  42.3427600  60.9947780   4.1408360  42.6143700  61.8254660
   2.7169130  46.2149530  65.9034480   3.3611350  46.4208910  66.5807900
   3.0798570  45.4537930  65.4505330   3.9901210  44.2181880  64.6211930
   4.6323440  43.5175040  64.7344100   4.5150560  44.9980320  64.4408820
   7.8356930  44.5030500  54.3451070   7.6094510  43.7860940  54.9375710
   7.4453130  44.2542940  53.5072820   5.7638830  45.0176780  67.8247990
   6.0995070  45.6043470  68.5025910   4.8439170  44.8869490  68.0545780
   7.4173180  42.4202440  56.0065230   7.1294880  42.8815130  56.7943110
   8.2125350  41.9600210  56.2749450   4.8081010  35.2994270  66.3572850
   5.1761830  34.4789480  66.6852420   3.9479210  35.3596160  66.7728500
   8.1743040  34.2551210  57.1660410   7.5456200  34.3596880  56.4518640
   7.6794960  34.4747990  57.9554290   2.6201180  45.9756800  54.5994390
   2.7213160  45.7720790  53.6696370   1.7202920  45.7215080  54.8042170
   1.7683000  37.9533860  66.5810820   2.2668250  38.4279680  67.2462670
   1.9105950  37.0297380  66.7880850   4.1742500  33.2587820  60.0214080
   4.0510280  33.2773950  59.0723590   5.1227060  33.3066760  60.1412480
   8.9749860  34.1701820  67.4239210   8.4723460  34.9107220  67.7633020
   9.7906520  34.5585820  67.1076000   7.2671870  39.4135000  60.8700570
   6.3262010  39.4285230  61.0448260   7.5815940  38.6270960  61.3160870
   9.2697450  46.5843850  62.5454830   9.3944870  47.4075020  63.0178640
  10.1363010  46.3734580  62.1978980   4.5837890  43.9701000  71.3532950
   3.9776050  43.9932600  70.6128700   4.2792000  43.2384040  71.8900200
   6.0138260  47.6981290  69.9642360   6.9660010  47.6139310  69.9142600
   5.8666480  48.3623000  70.6376150   8.9047460  47.0775500  55.4634270
   8.6188970  46.6640640  54.6488450   8.7067010  48.0063210  55.3434790
   3.6097420  42.1328810  54.5081870   3.0607520  42.5798110  55.1524610
   4.2316680  41.6278060  55.0319540   7.6632360  43.4870910  70.4404130
   8.4041830  43.8246670  69.9371590   6.9005040  43.6562970  69.8873900
   1.7900180  40.1157340  53.6524270   2.3105840  39.4006360  53.2865420
   2.4368580  40.7543210  53.9524780   6.3378020  41.5385740  68.9759340
   6.7519040  41.6930820  69.8249760   5.4029020  41.6640960  69.1385120
   6.8100190  38.8781900  70.9798490   7.3920960  38.1234220  70.8918970
   6.9861960  39.4089340  70.2029970   3.4357150  39.2222400  68.3293110
   3.5553360  38.6263540  69.0687950   4.2951150  39.2592090  67.9094410
   5.7745050  39.7759590  66.9055620   5.2480270  40.3002210  66.3020760
   6.1176390  40.4086980  67.5365350   5.0219350  35.3809560  69.8201950
   4.3334870  34.7191100  69.7551940   5.7425370  34.9347830  70.2650410
   5.6519750  31.9761190  55.8792210   5.9322040  31.1329090  56.2351630
   4.8785480  32.2084300  56.3930960   2.3548210  48.1968950  55.9426010
   3.2499000  48.5353920  55.9644770   2.3865840  47.4748360  55.3150290
   9.3342560  46.7272620  68.6492210   8.7344550  46.7865180  67.9056130
   9.4636460  45.7877600  68.7789060  10.5744010  44.4690440  53.9861920
   9.7436970  44.5367090  54.4569150  10.7515840  45.3594560  53.6828780
  10.0300470  41.2137920  56.4896120  10.7919380  41.7834570  56.5955810
  10.0454840  40.6465120  57.2604430  11.0360440  42.0688020  61.3338050
  11.4069270  41.2855340  60.9274020  11.6762370  42.7577120  61.1555350
   8.0194200  43.4524600  66.7468370   7.2054040  43.8821760  67.0094160
   8.4268400  44.0643010  66.1337420  10.0819640  41.5072290  53.6468640
  10.3568480  42.4151170  53.5187860   9.8930380  41.4434820  54.5830630
   6.4795250  34.5317140  54.9422270   6.8980130  34.3448120  54.1018930
   6.1731310  33.6796190  55.2525200   9.9784980  39.4441280  58.6398070
   9.6028580  38.6769210  58.2079360   9.2488100  39.8263980  59.1273000
   9.3684600  38.5912800  68.2737590   9.1370690  38.3625550  67.3735540
   9.6289150  39.5112350  68.2282480   7.8072670  33.8169230  71.0517290
   8.6842850  33.8252630  71.4351290   7.8193510  33.0800070  70.4409640
   9.2535940  37.6698770  61.9405310   9.7773420  37.1761420  61.3095480
   9.8395360  37.8049130  62.6852880   9.4325660  37.7538640  65.4624860
   8.4828370  37.7202180  65.5769850   9.6138670  38.6638750  65.2274630
   8.7435910  36.9272120  57.8797720   9.2395030  36.6942990  58.6646600
   8.5451980  36.0883960  57.4635360  10.1723070  35.5633070  60.4135400
  10.0622350  35.4089110  61.3517670  10.9330660  35.0354010  60.1710810
   8.5188790  31.5027200  66.8718400   9.1561010  32.1161340  67.2377590
   8.6663680  31.5387860  65.9267630  11.0613340  33.3940990  53.6541540
  11.9862650  33.2622170  53.4459830  11.0389130  33.4733810  54.6077990
  11.1351830  34.1651650  56.2798250  10.3403330  34.0996770  56.8091160
  11.3395110  35.1002290  56.2683600   8.0770250  48.2043200  60.2736640
   8.6729320  47.8827770  59.5971060   8.3348400  47.7315020  61.0649910
   1.8893270  32.6553390  69.7793500   1.8282160  33.2475220  70.5288910
   2.8293650  32.5479350  69.6343760   4.5267830  32.3123450  69.4185790
   5.1408240  32.6302740  68.7566870   5.0717390  31.8272040  70.0381650
  10.9443010  48.2115080  66.8247630  10.4501290  48.6083950  66.1074760
  10.3356300  47.5864290  67.2184910   5.2675870  30.8755590  65.7455080
   4.3935710  31.2090700  65.5428010   5.1586620  30.4028770  66.5706950
   6.1747850  33.0826460  67.1296800   5.8461210  32.2678220  66.7498530
   7.1230150  33.0396270  67.0062490   8.6282460  48.8538500  64.1034370
   8.1685430  49.6054310  63.7292390   7.9994920  48.1344970  64.0449170
   1.7973680  48.0535230  64.1051480   2.0851490  47.7989530  63.2284490
   2.3096900  47.5012590  64.6957050   3.0150690  31.7925430  64.6847990
   2.2322480  32.2670930  64.9644750   2.7213620  30.8880260  64.5761170
   7.5671760  32.4948530  62.7297080   8.0079850  32.4393630  61.8818680
   7.2979350  33.4106540  62.8007260   9.4310330  32.1263770  60.7405900
   9.3698730  31.1824990  60.5936920  10.2102360  32.2343860  61.2859360
   5.4029890  30.8754630  61.4347090   6.0059260  31.4474840  61.9095610
   4.6622880  31.4394070  61.2120990   8.5464490  31.2776190  56.7087370
   8.7415120  32.1759640  56.9754800   7.7594360  31.0463270  57.2020320
   1.8646040  48.9751330  71.4719680   2.7913350  48.7395600  71.5155640
   1.8496470  49.8023330  70.9905710  10.0991100  48.5176900  58.4693930
  10.2743290  47.8314640  57.8254850   9.4012670  49.0423950  58.0770600
   5.6525110  31.0549660  71.8142030   5.5390560  31.3744270  72.7093550
   6.4694850  31.4562170  71.5179310   8.4323600  48.2021190  71.2960720
   9.2248920  47.7070420  71.0886680   8.7256750  48.8811330  71.9036330
   4.5583260  39.0742130  42.1776770   4.4777310  38.1596740  41.9068480
   4.1447680  39.5709200  41.4716480   2.6901300  40.8521150  44.0586040
   1.9143400  40.3721590  44.3484610   3.3414230  40.1726800  43.8842200
   6.7108730  45.2581340  42.8385170   6.2490260  44.4868580  43.1672340
   7.5234280  45.2847410  43.3437620   2.9372040  47.5439350  42.4589160
   2.3183480  47.9996850  41.8883600   3.7923820  47.6990810  42.0578860
   2.1310290  43.5278340  44.0656200   2.0618570  42.5868280  43.9045330
   2.8930150  43.6179750  44.6378770   3.1615460  36.3348720  44.2925130
   3.5380280  35.4620600  44.1798800   3.0634970  36.6707420  43.4015570
   6.9439580  33.8299160  41.2253470   7.7649200  33.3395730  41.2678950
   6.9773660  34.4196820  41.9785310  11.2339130  35.8465910  47.7897100
  10.5291300  36.2347620  47.2712210  11.4997050  36.5416200  48.3918030
   3.8035390  42.4278590  39.8521070   3.1852660  42.8928040  39.2883790
   4.3158640  43.1206070  40.2690580   7.1801060  35.7699540  43.9981010
   6.4756630  36.0584430  44.5784120   7.5413220  36.5799650  43.6380570
   8.7963840  45.3874670  46.2608490   8.1127360  46.0573780  46.2525160
   9.3358130  45.5855320  45.4953350  10.2487980  35.2154330  44.3890220
   9.3012890  35.2493310  44.5205650  10.5737970  36.0293280  44.7739580
   6.3322580  47.2318800  44.9753670   6.3449740  46.8281090  44.1075930
   5.7797800  48.0066090  44.8715100   7.6268000  43.9535020  40.0643840
   7.5164330  43.0109350  40.1893260   7.6236250  44.3150660  40.9506600
   5.7308020  42.1348640  46.3036280   6.1476810  41.9208750  45.4689740
   6.4547840  42.3921430  46.8744900   3.1688280  39.5800340  39.4206330
   2.2417560  39.5137720  39.6494800   3.3213100  40.5180470  39.3061570
   3.1557360  35.8517340  36.4173490   2.2161030  36.0131300  36.5025950
   3.4740620  36.5703020  35.8709480   9.6770120  40.5335860  46.3952520
   8.8488750  40.6028950  45.9202650  10.2720600  41.1190170  45.9268350
   7.1985570  41.1420640  39.9241580   6.5797990  40.8040190  39.2767880
   7.1810020  40.4980400  40.6320770   6.6412130  37.3205180  47.3407390
   6.2283310  38.1458890  47.5947380   5.9088080  36.7350220  47.1483750
   7.3312230  47.3664510  48.0288370   6.8542790  48.1736700  47.8360980
   6.6474020  46.7142840  48.1814580   5.3750270  40.3807450  36.9314330
   5.8143550  39.5429880  36.7852150   6.0878690  41.0136850  37.0178470
   3.4845650  45.3203520  40.8995570   3.9241560  46.0627850  40.4850960
   3.4232540  45.5630090  41.8234530   8.9567410  31.6350260  35.2455370
   8.6440070  31.7277090  36.1454440   9.7179880  32.2131290  35.1952800
  10.9111440  47.1276450  53.0979760  11.3871160  47.6059340  53.7768840
  11.5318600  47.0593940  52.3725260  10.3144690  44.3189300  50.2579770
  10.4407750  44.0801180  49.3396950  10.3566070  43.4873840  50.7301850
   4.1761430  48.0217300  48.8274580   4.6906100  47.9325310  49.6297010
   3.3330510  48.3677000  49.1202490   6.1515830  48.3072640  38.2558580
   5.9916970  48.0175580  39.1540410   5.9862540  47.5312770  37.7203810
   5.8541960  45.8160200  36.8156580   5.1607120  45.8137490  36.1558860
   6.5964820  45.3919520  36.3850750   5.4191890  47.4422910  40.8905070
   5.8748840  46.6612290  41.2043690   5.7584410  48.1529730  41.4346250
  10.1668700  36.3721760  51.2229510   9.5512970  36.8801430  50.6944970
   9.8465120  35.4720090  51.1655450   2.2283020  35.2113650  48.6891700
   1.7662390  35.4196670  49.5011640   1.8261130  34.3973000  48.3862370
   7.2287530  36.4322600  49.8188360   6.3781120  36.1328350  50.1397430
   7.0689320  36.6764610  48.9072180   4.3237240  37.9324350  51.9187150
   4.6490650  37.0988100  51.5789380   5.1117570  38.4552870  52.0665480
   4.9625190  37.4742070  39.4128280   4.3634080  38.1977870  39.2291900
   5.5104800  37.4118850  38.6304730   3.5690060  36.1105610  41.4431560
   3.9619630  36.4277810  40.6300250   3.9306910  35.2317490  41.5576080
   4.1545200  38.7011360  45.5382340   3.4226320  39.2098170  45.8872440
   3.7569540  37.8841340  45.2371120   4.6171110  34.1545040  44.9505280
   4.6343850  34.6053690  45.7947130   4.3686690  33.2550680  45.1638720
   8.0441860  31.5677220  50.7891660   8.3687630  30.8366880  51.3149640
   8.0798370  31.2490860  49.8872650   7.9699700  41.6802330  44.3977690
   8.6898820  42.1757620  44.0073800   7.7681520  41.0020220  43.7531560
   3.4309640  33.0740290  38.5407080   2.6174250  32.5753460  38.4652390
   3.2371590  33.9138540  38.1243430   3.3518500  41.7511390  50.2846690
   3.2855810  40.8307060  50.0304280   2.7223640  41.8486830  50.9991330
   6.1458030  37.4459940  36.8369240   7.0337650  37.7577170  36.6620580
   6.1163120  36.5732190  36.4449820   3.2835230  44.5731960  50.0350490
   3.2979770  43.6412920  49.8169400   2.5760330  44.6591720  50.6740260
   8.4172300  38.7571780  36.3049100   8.3336020  39.1886000  35.4545540
   9.1366490  39.2170130  36.7375920   9.4946440  41.2139300  49.3819070
   8.7694630  41.8068080  49.1848460  10.0221900  41.2062840  48.5832440
   9.4459550  45.6114040  39.0331230   8.8035710  44.9569660  39.3074950
   9.0590210  46.0169130  38.2571900   5.0246030  42.9399470  42.8802920
   5.3769850  42.3427600  42.2204290   4.1408360  42.6143700  43.0511170
   2.7169130  46.2149530  47.1290990   3.3611350  46.4208910  47.8064410
   3.0798570  45.4537930  46.6761840   3.9901210  44.2181880  45.8468440
   4.6323440  43.5175040  45.9600610   4.5150560  44.9980320  45.6665330
   7.8356930  44.5030500  35.5707580   7.6094510  43.7860940  36.1632220
   7.4453130  44.2542940  34.7329330   5.7638830  45.0176780  49.0504500
   6.0995070  45.6043470  49.7282420   4.8439170  44.8869490  49.2802290
   7.4173180  42.4202440  37.2321740   7.1294880  42.8815130  38.0199620
   8.2125350  41.9600210  37.5005960   4.8081010  35.2994270  47.5829360
   5.1761830  34.4789480  47.9108930   3.9479210  35.3596160  47.9985010
   8.1743040  34.2551210  38.3916920   7.5456200  34.3596880  37.6775150
   7.6794960  34.4747990  39.1810800   2.6201180  45.9756800  35.8250900
   2.7213160  45.7720790  34.8952880   1.7202920  45.7215080  36.0298680
   1.7683000  37.9533860  47.8067330   2.2668250  38.4279680  48.4719180
   1.9105950  37.0297380  48.0137360   4.1742500  33.2587820  41.2470590
   4.0510280  33.2773950  40.2980100   5.1227060  33.3066760  41.3668990
   8.9749860  34.1701820  48.6495720   8.4723460  34.9107220  48.9889530
   9.7906520  34.5585820  48.3332510   7.2671870  39.4135000  42.0957080
   6.3262010  39.4285230  42.2704770   7.5815940  38.6270960  42.5417380
   9.2697450  46.5843850  43.7711340   9.3944870  47.4075020  44.2435150
  10.1363010  46.3734580  43.4235490   4.5837890  43.9701000  52.5789460
   3.9776050  43.9932600  51.8385210   4.2792000  43.2384040  53.1156710
   6.0138260  47.6981290  51.1898870   6.9660010  47.6139310  51.1399110
   5.8666480  48.3623000  51.8632660   8.9047460  47.0775500  36.6890780
   8.6188970  46.6640640  35.8744960   8.7067010  48.0063210  36.5691300
   3.6097420  42.1328810  35.7338380   3.0607520  42.5798110  36.3781120
   4.2316680  41.6278060  36.2576050   7.6632360  43.4870910  51.6660640
   8.4041830  43.8246670  51.1628100   6.9005040  43.6562970  51.1130410
   1.7900180  40.1157340  34.8780780   2.3105840  39.4006360  34.5121930
   2.4368580  40.7543210  35.1781290   6.3378020  41.5385740  50.2015850
   6.7519040  41.6930820  51.0506270   5.4029020  41.6640960  50.3641630
   6.8100190  38.8781900  52.2055000   7.3920960  38.1234220  52.1175480
   6.9861960  39.4089340  51.4286480   3.4357150  39.2222400  49.5549620
   3.5553360  38.6263540  50.2944460   4.2951150  39.2592090  49.1350920
   5.7745050  39.7759590  48.1312130   5.2480270  40.3002210  47.5277270
   6.1176390  40.4086980  48.7621860   5.0219350  35.3809560  51.0458460
   4.3334870  34.7191100  50.9808450   5.7425370  34.9347830  51.4906920
   5.6519750  31.9761190  37.1048720   5.9322040  31.1329090  37.4608140
   4.8785480  32.2084300  37.6187470   2.3548210  48.1968950  37.1682520
   3.2499000  48.5353920  37.1901280   2.3865840  47.4748360  36.5406800
   9.3342560  46.7272620  49.8748720   8.7344550  46.7865180  49.1312640
   9.4636460  45.7877600  50.0045570  10.5744010  44.4690440  35.2118430
   9.7436970  44.5367090  35.6825660  10.7515840  45.3594560  34.9085290
  10.0300470  41.2137920  37.7152630  10.7919380  41.7834570  37.8212320
  10.0454840  40.6465120  38.4860940  11.0360440  42.0688020  42.5594560
  11.4069270  41.2855340  42.1530530  11.6762370  42.7577120  42.3811860
   8.0194200  43.4524600  47.9724880   7.2054040  43.8821760  48.2350670
   8.4268400  44.0643010  47.3593930  10.0819640  41.5072290  34.8725150
  10.3568480  42.4151170  34.7444370   9.8930380  41.4434820  35.8087140
   6.4795250  34.5317140  36.1678780   6.8980130  34.3448120  35.3275440
   6.1731310  33.6796190  36.4781710   9.9784980  39.4441280  39.8654580
   9.6028580  38.6769210  39.4335870   9.2488100  39.8263980  40.3529510
   9.3684600  38.5912800  49.4994100   9.1370690  38.3625550  48.5992050
   9.6289150  39.5112350  49.4538990   7.8072670  33.8169230  52.2773800
   8.6842850  33.8252630  52.6607800   7.8193510  33.0800070  51.6666150
   9.2535940  37.6698770  43.1661820   9.7773420  37.1761420  42.5351990
   9.8395360  37.8049130  43.9109390   9.4325660  37.7538640  46.6881370
   8.4828370  37.7202180  46.8026360   9.6138670  38.6638750  46.4531140
   8.7435910  36.9272120  39.1054230   9.2395030  36.6942990  39.8903110
   8.5451980  36.0883960  38.6891870  10.1723070  35.5633070  41.6391910
  10.0622350  35.4089110  42.5774180  10.9330660  35.0354010  41.3967320
   8.5188790  31.5027200  48.0974910   9.1561010  32.1161340  48.4634100
   8.6663680  31.5387860  47.1524140  11.0613340  33.3940990  34.8798050
  11.9862650  33.2622170  34.6716340  11.0389130  33.4733810  35.8334500
  11.1351830  34.1651650  37.5054760  10.3403330  34.0996770  38.0347670
  11.3395110  35.1002290  37.4940110   8.0770250  48.2043200  41.4993150
   8.6729320  47.8827770  40.8227570   8.3348400  47.7315020  42.2906420
   1.8893270  32.6553390  51.0050010   1.8282160  33.2475220  51.7545420
   2.8293650  32.5479350  50.8600270   4.5267830  32.3123450  50.6442300
   5.1408240  32.6302740  49.9823380   5.0717390  31.8272040  51.2638160
  10.9443010  48.2115080  48.0504140  10.4501290  48.6083950  47.3331270
  10.3356300  47.5864290  48.4441420   5.2675870  30.8755590  46.9711590
   4.3935710  31.2090700  46.7684520   5.1586620  30.4028770  47.7963460
   6.1747850  33.0826460  48.3553310   5.8461210  32.2678220  47.9755040
   7.1230150  33.0396270  48.2319000   8.6282460  48.8538500  45.3290880
   8.1685430  49.6054310  44.9548900   7.9994920  48.1344970  45.2705680
   1.7973680  48.0535230  45.3307990   2.0851490  47.7989530  44.4541000
   2.3096900  47.5012590  45.9213560   3.0150690  31.7925430  45.9104500
   2.2322480  32.2670930  46.1901260   2.7213620  30.8880260  45.8017680
   7.5671760  32.4948530  43.9553590   8.0079850  32.4393630  43.1075190
   7.2979350  33.4106540  44.0263770   9.4310330  32.1263770  41.9662410
   9.3698730  31.1824990  41.8193430  10.2102360  32.2343860  42.5115870
   5.4029890  30.8754630  42.6603600   6.0059260  31.4474840  43.1352120
   4.6622880  31.4394070  42.4377500   8.5464490  31.2776190  37.9343880
   8.7415120  32.1759640  38.2011310   7.7594360  31.0463270  38.4276830
   1.8646040  48.9751330  52.6976190   2.7913350  48.7395600  52.7412150
   1.8496470  49.8023330  52.2162220  10.0991100  48.5176900  39.6950440
  10.2743290  47.8314640  39.0511360   9.4012670  49.0423950  39.3027110
   5.6525110  31.0549660  53.0398540   5.5390560  31.3744270  53.9350060
   6.4694850  31.4562170  52.7435820   8.4323600  48.2021190  52.5217230
   9.2248920  47.7070420  52.3143190   8.7256750  48.8811330  53.1292840
   4.5583260  39.0742130  23.4033280   4.4777310  38.1596740  23.1324990
   4.1447680  39.5709200  22.6972990   2.6901300  40.8521150  25.2842550
   1.9143400  40.3721590  25.5741120   3.3414230  40.1726800  25.1098710
   6.7108730  45.2581340  24.0641680   6.2490260  44.4868580  24.3928850
   7.5234280  45.2847410  24.5694130   2.9372040  47.5439350  23.6845670
   2.3183480  47.9996850  23.1140110   3.7923820  47.6990810  23.2835370
   2.1310290  43.5278340  25.2912710   2.0618570  42.5868280  25.1301840
   2.8930150  43.6179750  25.8635280   3.1615460  36.3348720  25.5181640
   3.5380280  35.4620600  25.4055310   3.0634970  36.6707420  24.6272080
   6.9439580  33.8299160  22.4509980   7.7649200  33.3395730  22.4935460
   6.9773660  34.4196820  23.2041820  11.2339130  35.8465910  29.0153610
  10.5291300  36.2347620  28.4968720  11.4997050  36.5416200  29.6174540
   3.8035390  42.4278590  21.0777580   3.1852660  42.8928040  20.5140300
   4.3158640  43.1206070  21.4947090   7.1801060  35.7699540  25.2237520
   6.4756630  36.0584430  25.8040630   7.5413220  36.5799650  24.8637080
   8.7963840  45.3874670  27.4865000   8.1127360  46.0573780  27.4781670
   9.3358130  45.5855320  26.7209860  10.2487980  35.2154330  25.6146730
   9.3012890  35.2493310  25.7462160  10.5737970  36.0293280  25.9996090
   6.3322580  47.2318800  26.2010180   6.3449740  46.8281090  25.3332440
   5.7797800  48.0066090  26.0971610   7.6268000  43.9535020  21.2900350
   7.5164330  43.0109350  21.4149770   7.6236250  44.3150660  22.1763110
   5.7308020  42.1348640  27.5292790   6.1476810  41.9208750  26.6946250
   6.4547840  42.3921430  28.1001410   3.1688280  39.5800340  20.6462840
   2.2417560  39.5137720  20.8751310   3.3213100  40.5180470  20.5318080
   3.1557360  35.8517340  17.6430000   2.2161030  36.0131300  17.7282460
   3.4740620  36.5703020  17.0965990   9.6770120  40.5335860  27.6209030
   8.8488750  40.6028950  27.1459160  10.2720600  41.1190170  27.1524860
   7.1985570  41.1420640  21.1498090   6.5797990  40.8040190  20.5024390
   7.1810020  40.4980400  21.8577280   6.6412130  37.3205180  28.5663900
   6.2283310  38.1458890  28.8203890   5.9088080  36.7350220  28.3740260
   7.3312230  47.3664510  29.2544880   6.8542790  48.1736700  29.0617490
   6.6474020  46.7142840  29.4071090   5.3750270  40.3807450  18.1570840
   5.8143550  39.5429880  18.0108660   6.0878690  41.0136850  18.2434980
   3.4845650  45.3203520  22.1252080   3.9241560  46.0627850  21.7107470
   3.4232540  45.5630090  23.0491040   8.9567410  31.6350260  16.4711880
   8.6440070  31.7277090  17.3710950   9.7179880  32.2131290  16.4209310
  10.9111440  47.1276450  34.3236270  11.3871160  47.6059340  35.0025350
  11.5318600  47.0593940  33.5981770  10.3144690  44.3189300  31.4836280
  10.4407750  44.0801180  30.5653460  10.3566070  43.4873840  31.9558360
   4.1761430  48.0217300  30.0531090   4.6906100  47.9325310  30.8553520
   3.3330510  48.3677000  30.3459000   6.1515830  48.3072640  19.4815090
   5.9916970  48.0175580  20.3796920   5.9862540  47.5312770  18.9460320
   5.8541960  45.8160200  18.0413090   5.1607120  45.8137490  17.3815370
   6.5964820  45.3919520  17.6107260   5.4191890  47.4422910  22.1161580
   5.8748840  46.6612290  22.4300200   5.7584410  48.1529730  22.6602760
  10.1668700  36.3721760  32.4486020   9.5512970  36.8801430  31.9201480
   9.8465120  35.4720090  32.3911960   2.2283020  35.2113650  29.9148210
   1.7662390  35.4196670  30.7268150   1.8261130  34.3973000  29.6118880
   7.2287530  36.4322600  31.0444870   6.3781120  36.1328350  31.3653940
   7.0689320  36.6764610  30.1328690   4.3237240  37.9324350  33.1443660
   4.6490650  37.0988100  32.8045890   5.1117570  38.4552870  33.2921990
   4.9625190  37.4742070  20.6384790   4.3634080  38.1977870  20.4548410
   5.5104800  37.4118850  19.8561240   3.5690060  36.1105610  22.6688070
   3.9619630  36.4277810  21.8556760   3.9306910  35.2317490  22.7832590
   4.1545200  38.7011360  26.7638850   3.4226320  39.2098170  27.1128950
   3.7569540  37.8841340  26.4627630   4.6171110  34.1545040  26.1761790
   4.6343850  34.6053690  27.0203640   4.3686690  33.2550680  26.3895230
   8.0441860  31.5677220  32.0148170   8.3687630  30.8366880  32.5406150
   8.0798370  31.2490860  31.1129160   7.9699700  41.6802330  25.6234200
   8.6898820  42.1757620  25.2330310   7.7681520  41.0020220  24.9788070
   3.4309640  33.0740290  19.7663590   2.6174250  32.5753460  19.6908900
   3.2371590  33.9138540  19.3499940   3.3518500  41.7511390  31.5103200
   3.2855810  40.8307060  31.2560790   2.7223640  41.8486830  32.2247840
   6.1458030  37.4459940  18.0625750   7.0337650  37.7577170  17.8877090
   6.1163120  36.5732190  17.6706330   3.2835230  44.5731960  31.2607000
   3.2979770  43.6412920  31.0425910   2.5760330  44.6591720  31.8996770
   8.4172300  38.7571780  17.5305610   8.3336020  39.1886000  16.6802050
   9.1366490  39.2170130  17.9632430   9.4946440  41.2139300  30.6075580
   8.7694630  41.8068080  30.4104970  10.0221900  41.2062840  29.8088950
   9.4459550  45.6114040  20.2587740   8.8035710  44.9569660  20.5331460
   9.0590210  46.0169130  19.4828410   5.0246030  42.9399470  24.1059430
   5.3769850  42.3427600  23.4460800   4.1408360  42.6143700  24.2767680
   2.7169130  46.2149530  28.3547500   3.3611350  46.4208910  29.0320920
   3.0798570  45.4537930  27.9018350   3.9901210  44.2181880  27.0724950
   4.6323440  43.5175040  27.1857120   4.5150560  44.9980320  26.8921840
   7.8356930  44.5030500  16.7964090   7.6094510  43.7860940  17.3888730
   7.4453130  44.2542940  15.9585840   5.7638830  45.0176780  30.2761010
   6.0995070  45.6043470  30.9538930   4.8439170  44.8869490  30.5058800
   7.4173180  42.4202440  18.4578250   7.1294880  42.8815130  19.2456130
   8.2125350  41.9600210  18.7262470   4.8081010  35.2994270  28.8085870
   5.1761830  34.4789480  29.1365440   3.9479210  35.3596160  29.2241520
   8.1743040  34.2551210  19.6173430   7.5456200  34.3596880  18.9031660
   7.6794960  34.4747990  20.4067310   2.6201180  45.9756800  17.0507410
   2.7213160  45.7720790  16.1209390   1.7202920  45.7215080  17.2555190
   1.7683000  37.9533860  29.0323840   2.2668250  38.4279680  29.6975690
   1.9105950  37.0297380  29.2393870   4.1742500  33.2587820  22.4727100
   4.0510280  33.2773950  21.5236610   5.1227060  33.3066760  22.5925500
   8.9749860  34.1701820  29.8752230   8.4723460  34.9107220  30.2146040
   9.7906520  34.5585820  29.5589020   7.2671870  39.4135000  23.3213590
   6.3262010  39.4285230  23.4961280   7.5815940  38.6270960  23.7673890
   9.2697450  46.5843850  24.9967850   9.3944870  47.4075020  25.4691660
  10.1363010  46.3734580  24.6492000   4.5837890  43.9701000  33.8045970
   3.9776050  43.9932600  33.0641720   4.2792000  43.2384040  34.3413220
   6.0138260  47.6981290  32.4155380   6.9660010  47.6139310  32.3655620
   5.8666480  48.3623000  33.0889170   8.9047460  47.0775500  17.9147290
   8.6188970  46.6640640  17.1001470   8.7067010  48.0063210  17.7947810
   3.6097420  42.1328810  16.9594890   3.0607520  42.5798110  17.6037630
   4.2316680  41.6278060  17.4832560   7.6632360  43.4870910  32.8917150
   8.4041830  43.8246670  32.3884610   6.9005040  43.6562970  32.3386920
   1.7900180  40.1157340  16.1037290   2.3105840  39.4006360  15.7378440
   2.4368580  40.7543210  16.4037800   6.3378020  41.5385740  31.4272360
   6.7519040  41.6930820  32.2762780   5.4029020  41.6640960  31.5898140
   6.8100190  38.8781900  33.4311510   7.3920960  38.1234220  33.3431990
   6.9861960  39.4089340  32.6542990   3.4357150  39.2222400  30.7806130
   3.5553360  38.6263540  31.5200970   4.2951150  39.2592090  30.3607430
   5.7745050  39.7759590  29.3568640   5.2480270  40.3002210  28.7533780
   6.1176390  40.4086980  29.9878370   5.0219350  35.3809560  32.2714970
   4.3334870  34.7191100  32.2064960   5.7425370  34.9347830  32.7163430
   5.6519750  31.9761190  18.3305230   5.9322040  31.1329090  18.6864650
   4.8785480  32.2084300  18.8443980   2.3548210  48.1968950  18.3939030
   3.2499000  48.5353920  18.4157790   2.3865840  47.4748360  17.7663310
   9.3342560  46.7272620  31.1005230   8.7344550  46.7865180  30.3569150
   9.4636460  45.7877600  31.2302080  10.5744010  44.4690440  16.4374940
   9.7436970  44.5367090  16.9082170  10.7515840  45.3594560  16.1341800
  10.0300470  41.2137920  18.9409140  10.7919380  41.7834570  19.0468830
  10.0454840  40.6465120  19.7117450  11.0360440  42.0688020  23.7851070
  11.4069270  41.2855340  23.3787040  11.6762370  42.7577120  23.6068370
   8.0194200  43.4524600  29.1981390   7.2054040  43.8821760  29.4607180
   8.4268400  44.0643010  28.5850440  10.0819640  41.5072290  16.0981660
  10.3568480  42.4151170  15.9700880   9.8930380  41.4434820  17.0343650
   6.4795250  34.5317140  17.3935290   6.8980130  34.3448120  16.5531950
   6.1731310  33.6796190  17.7038220   9.9784980  39.4441280  21.0911090
   9.6028580  38.6769210  20.6592380   9.2488100  39.8263980  21.5786020
   9.3684600  38.5912800  30.7250610   9.1370690  38.3625550  29.8248560
   9.6289150  39.5112350  30.6795500   7.8072670  33.8169230  33.5030310
   8.6842850  33.8252630  33.8864310   7.8193510  33.0800070  32.8922660
   9.2535940  37.6698770  24.3918330   9.7773420  37.1761420  23.7608500
   9.8395360  37.8049130  25.1365900   9.4325660  37.7538640  27.9137880
   8.4828370  37.7202180  28.0282870   9.6138670  38.6638750  27.6787650
   8.7435910  36.9272120  20.3310740   9.2395030  36.6942990  21.1159620
   8.5451980  36.0883960  19.9148380  10.1723070  35.5633070  22.8648420
  10.0622350  35.4089110  23.8030690  10.9330660  35.0354010  22.6223830
   8.5188790  31.5027200  29.3231420   9.1561010  32.1161340  29.6890610
   8.6663680  31.5387860  28.3780650  11.0613340  33.3940990  16.1054560
  11.9862650  33.2622170  15.8972850  11.0389130  33.4733810  17.0591010
  11.1351830  34.1651650  18.7311270  10.3403330  34.0996770  19.2604180
  11.3395110  35.1002290  18.7196620   8.0770250  48.2043200  22.7249660
   8.6729320  47.8827770  22.0484080   8.3348400  47.7315020  23.5162930
   1.8893270  32.6553390  32.2306520   1.8282160  33.2475220  32.9801930
   2.8293650  32.5479350  32.0856780   4.5267830  32.3123450  31.8698810
   5.1408240  32.6302740  31.2079890   5.0717390  31.8272040  32.4894670
  10.9443010  48.2115080  29.2760650  10.4501290  48.6083950  28.5587780
  10.3356300  47.5864290  29.6697930   5.2675870  30.8755590  28.1968100
   4.3935710  31.2090700  27.9941030   5.1586620  30.4028770  29.0219970
   6.1747850  33.0826460  29.5809820   5.8461210  32.2678220  29.2011550
   7.1230150  33.0396270  29.4575510   8.6282460  48.8538500  26.5547390
   8.1685430  49.6054310  26.1805410   7.9994920  48.1344970  26.4962190
   1.7973680  48.0535230  26.5564500   2.0851490  47.7989530  25.6797510
   2.3096900  47.5012590  27.1470070   3.0150690  31.7925430  27.1361010
   2.2322480  32.2670930  27.4157770   2.7213620  30.8880260  27.0274190
   7.5671760  32.4948530  25.1810100   8.0079850  32.4393630  24.3331700
   7.2979350  33.4106540  25.2520280   9.4310330  32.1263770  23.1918920
   9.3698730  31.1824990  23.0449940  10.2102360  32.2343860  23.7372380
   5.4029890  30.8754630  23.8860110   6.0059260  31.4474840  24.3608630
   4.6622880  31.4394070  23.6634010   8.5464490  31.2776190  19.1600390
   8.7415120  32.1759640  19.4267820   7.7594360  31.0463270  19.6533340
   1.8646040  48.9751330  33.9232700   2.7913350  48.7395600  33.9668660
   1.8496470  49.8023330  33.4418730  10.0991100  48.5176900  20.9206950
  10.2743290  47.8314640  20.2767870   9.4012670  49.0423950  20.5283620
   5.6525110  31.0549660  34.2655050   5.5390560  31.3744270  35.1606570
   6.4694850  31.4562170  33.9692330   8.4323600  48.2021190  33.7473740
   9.2248920  47.7070420  33.5399700   8.7256750  48.8811330  34.3549350
   4.5583260  39.0742130   4.6289790   4.4777310  38.1596740   4.3581500
   4.1447680  39.5709200   3.9229500   2.6901300  40.8521150   6.5099060
   1.9143400  40.3721590   6.7997630   3.3414230  40.1726800   6.3355220
   6.7108730  45.2581340   5.2898190   6.2490260  44.4868580   5.6185360
   7.5234280  45.2847410   5.7950640   2.9372040  47.5439350   4.9102180
   2.3183480  47.9996850   4.3396620   3.7923820  47.6990810   4.5091880
   2.1310290  43.5278340   6.5169220   2.0618570  42.5868280   6.3558350
   2.8930150  43.6179750   7.0891790   3.1615460  36.3348720   6.7438150
   3.5380280  35.4620600   6.6311820   3.0634970  36.6707420   5.8528590
   6.9439580  33.8299160   3.6766490   7.7649200  33.3395730   3.7191970
   6.9773660  34.4196820   4.4298330  11.2339130  35.8465910  10.2410120
  10.5291300  36.2347620   9.7225230  11.4997050  36.5416200  10.8431050
   3.8035390  42.4278590   2.3034090   3.1852660  42.8928040   1.7396810
   4.3158640  43.1206070   2.7203600   7.1801060  35.7699540   6.4494030
   6.4756630  36.0584430   7.0297140   7.5413220  36.5799650   6.0893590
   8.7963840  45.3874670   8.7121510   8.1127360  46.0573780   8.7038180
   9.3358130  45.5855320   7.9466370  10.2487980  35.2154330   6.8403240
   9.3012890  35.2493310   6.9718670  10.5737970  36.0293280   7.2252600
   6.3322580  47.2318800   7.4266690   6.3449740  46.8281090   6.5588950
   5.7797800  48.0066090   7.3228120   7.6268000  43.9535020   2.5156860
   7.5164330  43.0109350   2.6406280   7.6236250  44.3150660   3.4019620
   5.7308020  42.1348640   8.7549300   6.1476810  41.9208750   7.9202760
   6.4547840  42.3921430   9.3257920   3.1688280  39.5800340   1.8719350
   2.2417560  39.5137720   2.1007820   3.3213100  40.5180470   1.7574590
   9.6770120  40.5335860   8.8465540   8.8488750  40.6028950   8.3715670
  10.2720600  41.1190170   8.3781370   7.1985570  41.1420640   2.3754600
   6.5797990  40.8040190   1.7280900   7.1810020  40.4980400   3.0833790
   6.6412130  37.3205180   9.7920410   6.2283310  38.1458890  10.0460400
   5.9088080  36.7350220   9.5996770   7.3312230  47.3664510  10.4801390
   6.8542790  48.1736700  10.2874000   6.6474020  46.7142840  10.6327600
   3.4845650  45.3203520   3.3508590   3.9241560  46.0627850   2.9363980
   3.4232540  45.5630090   4.2747550  10.9111440  47.1276450  15.5492780
  11.3871160  47.6059340  16.2281860  11.5318600  47.0593940  14.8238280
  10.3144690  44.3189300  12.7092790  10.4407750  44.0801180  11.7909970
  10.3566070  43.4873840  13.1814870   4.1761430  48.0217300  11.2787600
   4.6906100  47.9325310  12.0810030   3.3330510  48.3677000  11.5715510
   5.4191890  47.4422910   3.3418090   5.8748840  46.6612290   3.6556710
   5.7584410  48.1529730   3.8859270  10.1668700  36.3721760  13.6742530
   9.5512970  36.8801430  13.1457990   9.8465120  35.4720090  13.6168470
   2.2283020  35.2113650  11.1404720   1.7662390  35.4196670  11.9524660
   1.8261130  34.3973000  10.8375390   7.2287530  36.4322600  12.2701380
   6.3781120  36.1328350  12.5910450   7.0689320  36.6764610  11.3585200
   4.3237240  37.9324350  14.3700170   4.6490650  37.0988100  14.0302400
   5.1117570  38.4552870  14.5178500   3.5690060  36.1105610   3.8944580
   3.9619630  36.4277810   3.0813270   3.9306910  35.2317490   4.0089100
   4.1545200  38.7011360   7.9895360   3.4226320  39.2098170   8.3385460
   3.7569540  37.8841340   7.6884140   4.6171110  34.1545040   7.4018300
   4.6343850  34.6053690   8.2460150   4.3686690  33.2550680   7.6151740
   8.0441860  31.5677220  13.2404680   8.3687630  30.8366880  13.7662660
   8.0798370  31.2490860  12.3385670   7.9699700  41.6802330   6.8490710
   8.6898820  42.1757620   6.4586820   7.7681520  41.0020220   6.2044580
   3.3518500  41.7511390  12.7359710   3.2855810  40.8307060  12.4817300
   2.7223640  41.8486830  13.4504350   3.2835230  44.5731960  12.4863510
   3.2979770  43.6412920  12.2682420   2.5760330  44.6591720  13.1253280
   9.4946440  41.2139300  11.8332090   8.7694630  41.8068080  11.6361480
  10.0221900  41.2062840  11.0345460   5.0246030  42.9399470   5.3315940
   5.3769850  42.3427600   4.6717310   4.1408360  42.6143700   5.5024190
   2.7169130  46.2149530   9.5804010   3.3611350  46.4208910  10.2577430
   3.0798570  45.4537930   9.1274860   3.9901210  44.2181880   8.2981460
   4.6323440  43.5175040   8.4113630   4.5150560  44.9980320   8.1178350
   5.7638830  45.0176780  11.5017520   6.0995070  45.6043470  12.1795440
   4.8439170  44.8869490  11.7315310   4.8081010  35.2994270  10.0342380
   5.1761830  34.4789480  10.3621950   3.9479210  35.3596160  10.4498030
   1.7683000  37.9533860  10.2580350   2.2668250  38.4279680  10.9232200
   1.9105950  37.0297380  10.4650380   4.1742500  33.2587820   3.6983610
   4.0510280  33.2773950   2.7493120   5.1227060  33.3066760   3.8182010
   8.9749860  34.1701820  11.1008740   8.4723460  34.9107220  11.4402550
   9.7906520  34.5585820  10.7845530   7.2671870  39.4135000   4.5470100
   6.3262010  39.4285230   4.7217790   7.5815940  38.6270960   4.9930400
   9.2697450  46.5843850   6.2224360   9.3944870  47.4075020   6.6948170
  10.1363010  46.3734580   5.8748510   4.5837890  43.9701000  15.0302480
   3.9776050  43.9932600  14.2898230   4.2792000  43.2384040  15.5669730
   6.0138260  47.6981290  13.6411890   6.9660010  47.6139310  13.5912130
   5.8666480  48.3623000  14.3145680   7.6632360  43.4870910  14.1173660
   8.4041830  43.8246670  13.6141120   6.9005040  43.6562970  13.5643430
   6.3378020  41.5385740  12.6528870   6.7519040  41.6930820  13.5019290
   5.4029020  41.6640960  12.8154650   6.8100190  38.8781900  14.6568020
   7.3920960  38.1234220  14.5688500   6.9861960  39.4089340  13.8799500
   3.4357150  39.2222400  12.0062640   3.5553360  38.6263540  12.7457480
   4.2951150  39.2592090  11.5863940   5.7745050  39.7759590  10.5825150
   5.2480270  40.3002210   9.9790290   6.1176390  40.4086980  11.2134880
   5.0219350  35.3809560  13.4971480   4.3334870  34.7191100  13.4321470
   5.7425370  34.9347830  13.9419940   9.3342560  46.7272620  12.3261740
   8.7344550  46.7865180  11.5825660   9.4636460  45.7877600  12.4558590
  11.0360440  42.0688020   5.0107580  11.4069270  41.2855340   4.6043550
  11.6762370  42.7577120   4.8324880   8.0194200  43.4524600  10.4237900
   7.2054040  43.8821760  10.6863690   8.4268400  44.0643010   9.8106950
   9.9784980  39.4441280   2.3167600   9.6028580  38.6769210   1.8848890
   9.2488100  39.8263980   2.8042530   9.3684600  38.5912800  11.9507120
   9.1370690  38.3625550  11.0505070   9.6289150  39.5112350  11.9052010
   7.8072670  33.8169230  14.7286820   8.6842850  33.8252630  15.1120820
   7.8193510  33.0800070  14.1179170   9.2535940  37.6698770   5.6174840
   9.7773420  37.1761420   4.9865010   9.8395360  37.8049130   6.3622410
   9.4325660  37.7538640   9.1394390   8.4828370  37.7202180   9.2539380
   9.6138670  38.6638750   8.9044160  10.1723070  35.5633070   4.0904930
  10.0622350  35.4089110   5.0287200  10.9330660  35.0354010   3.8480340
   8.5188790  31.5027200  10.5487930   9.1561010  32.1161340  10.9147120
   8.6663680  31.5387860   9.6037160   8.0770250  48.2043200   3.9506170
   8.6729320  47.8827770   3.2740590   8.3348400  47.7315020   4.7419440
   1.8893270  32.6553390  13.4563030   1.8282160  33.2475220  14.2058440
   2.8293650  32.5479350  13.3113290   4.5267830  32.3123450  13.0955320
   5.1408240  32.6302740  12.4336400   5.0717390  31.8272040  13.7151180
  10.9443010  48.2115080  10.5017160  10.4501290  48.6083950   9.7844290
  10.3356300  47.5864290  10.8954440   5.2675870  30.8755590   9.4224610
   4.3935710  31.2090700   9.2197540   5.1586620  30.4028770  10.2476480
   6.1747850  33.0826460  10.8066330   5.8461210  32.2678220  10.4268060
   7.1230150  33.0396270  10.6832020   8.6282460  48.8538500   7.7803900
   8.1685430  49.6054310   7.4061920   7.9994920  48.1344970   7.7218700
   1.7973680  48.0535230   7.7821010   2.0851490  47.7989530   6.9054020
   2.3096900  47.5012590   8.3726580   3.0150690  31.7925430   8.3617520
   2.2322480  32.2670930   8.6414280   2.7213620  30.8880260   8.2530700
   7.5671760  32.4948530   6.4066610   8.0079850  32.4393630   5.5588210
   7.2979350  33.4106540   6.4776790   9.4310330  32.1263770   4.4175430
   9.3698730  31.1824990   4.2706450  10.2102360  32.2343860   4.9628890
   5.4029890  30.8754630   5.1116620   6.0059260  31.4474840   5.5865140
   4.6622880  31.4394070   4.8890520   1.8646040  48.9751330  15.1489210
   2.7913350  48.7395600  15.1925170   1.8496470  49.8023330  14.6675240
  10.0991100  48.5176900   2.1463460  10.2743290  47.8314640   1.5024380
   9.4012670  49.0423950   1.7540130   5.6525110  31.0549660  15.4911560
   5.5390560  31.3744270  16.3863080   6.4694850  31.4562170  15.1948840
   8.4323600  48.2021190  14.9730250   9.2248920  47.7070420  14.7656210
   8.7256750  48.8811330  15.5805860   4.5583260  20.2998640  79.7263750
   4.4777310  19.3853250  79.4555460   4.1447680  20.7965710  79.0203460
   2.6901300  22.0777660  81.6073020   1.9143400  21.5978100  81.8971590
   3.3414230  21.3983310  81.4329180   6.7108730  26.4837850  80.3872150
   6.2490260  25.7125090  80.7159320   7.5234280  26.5103920  80.8924600
   2.9372040  28.7695860  80.0076140   2.3183480  29.2253360  79.4370580
   3.7923820  28.9247320  79.6065840   2.1310290  24.7534850  81.6143180
   2.0618570  23.8124790  81.4532310   2.8930150  24.8436260  82.1865750
   3.1615460  17.5605230  81.8412110   3.5380280  16.6877110  81.7285780
   3.0634970  17.8963930  80.9502550   6.9439580  15.0555670  78.7740450
   7.7649200  14.5652240  78.8165930   6.9773660  15.6453330  79.5272290
  11.2339130  17.0722420  85.3384080  10.5291300  17.4604130  84.8199190
  11.4997050  17.7672710  85.9405010   3.8035390  23.6535100  77.4008050
   3.1852660  24.1184550  76.8370770   4.3158640  24.3462580  77.8177560
   7.1801060  16.9956050  81.5467990   6.4756630  17.2840940  82.1271100
   7.5413220  17.8056160  81.1867550   8.7963840  26.6131180  83.8095470
   8.1127360  27.2830290  83.8012140   9.3358130  26.8111830  83.0440330
  10.2487980  16.4410840  81.9377200   9.3012890  16.4749820  82.0692630
  10.5737970  17.2549790  82.3226560   6.3322580  28.4575310  82.5240650
   6.3449740  28.0537600  81.6562910   5.7797800  29.2322600  82.4202080
   7.6268000  25.1791530  77.6130820   7.5164330  24.2365860  77.7380240
   7.6236250  25.5407170  78.4993580   5.7308020  23.3605150  83.8523260
   6.1476810  23.1465260  83.0176720   6.4547840  23.6177940  84.4231880
   3.1688280  20.8056850  76.9693310   2.2417560  20.7394230  77.1981780
   3.3213100  21.7436980  76.8548550   3.1557360  17.0773850  73.9660470
   2.2161030  17.2387810  74.0512930   3.4740620  17.7959530  73.4196460
   9.6770120  21.7592370  83.9439500   8.8488750  21.8285460  83.4689630
  10.2720600  22.3446680  83.4755330   7.1985570  22.3677150  77.4728560
   6.5797990  22.0296700  76.8254860   7.1810020  21.7236910  78.1807750
   6.6412130  18.5461690  84.8894370   6.2283310  19.3715400  85.1434360
   5.9088080  17.9606730  84.6970730   7.3312230  28.5921020  85.5775350
   6.8542790  29.3993210  85.3847960   6.6474020  27.9399350  85.7301560
   5.3750270  21.6063960  74.4801310   5.8143550  20.7686390  74.3339130
   6.0878690  22.2393360  74.5665450   3.4845650  26.5460030  78.4482550
   3.9241560  27.2884360  78.0337940   3.4232540  26.7886600  79.3721510
   8.9567410  12.8606770  72.7942350   8.6440070  12.9533600  73.6941420
   9.7179880  13.4387800  72.7439780   6.1515830  29.5329150  75.8045560
   5.9916970  29.2432090  76.7027390   5.9862540  28.7569280  75.2690790
   5.8541960  27.0416710  74.3643560   5.1607120  27.0394000  73.7045840
   6.5964820  26.6176030  73.9337730   5.4191890  28.6679420  78.4392050
   5.8748840  27.8868800  78.7530670   5.7584410  29.3786240  78.9833230
   4.9625190  18.6998580  76.9615260   4.3634080  19.4234380  76.7778880
   5.5104800  18.6375360  76.1791710   3.5690060  17.3362120  78.9918540
   3.9619630  17.6534320  78.1787230   3.9306910  16.4574000  79.1063060
   4.1545200  19.9267870  83.0869320   3.4226320  20.4354680  83.4359420
   3.7569540  19.1097850  82.7858100   4.6171110  15.3801550  82.4992260
   4.6343850  15.8310200  83.3434110   4.3686690  14.4807190  82.7125700
   7.9699700  22.9058840  81.9464670   8.6898820  23.4014130  81.5560780
   7.7681520  22.2276730  81.3018540   3.4309640  14.2996800  76.0894060
   2.6174250  13.8009970  76.0139370   3.2371590  15.1395050  75.6730410
   6.1458030  18.6716450  74.3856220   7.0337650  18.9833680  74.2107560
   6.1163120  17.7988700  73.9936800   8.4172300  19.9828290  73.8536080
   8.3336020  20.4142510  73.0032520   9.1366490  20.4426640  74.2862900
   9.4459550  26.8370550  76.5818210   8.8035710  26.1826170  76.8561930
   9.0590210  27.2425640  75.8058880   5.0246030  24.1655980  80.4289900
   5.3769850  23.5684110  79.7691270   4.1408360  23.8400210  80.5998150
   2.7169130  27.4406040  84.6777970   3.3611350  27.6465420  85.3551390
   3.0798570  26.6794440  84.2248820   3.9901210  25.4438390  83.3955420
   4.6323440  24.7431550  83.5087590   4.5150560  26.2236830  83.2152310
   7.8356930  25.7287010  73.1194560   7.6094510  25.0117450  73.7119200
   7.4453130  25.4799450  72.2816310   7.4173180  23.6458950  74.7808720
   7.1294880  24.1071640  75.5686600   8.2125350  23.1856720  75.0492940
   4.8081010  16.5250780  85.1316340   5.1761830  15.7045990  85.4595910
   3.9479210  16.5852670  85.5471990   8.1743040  15.4807720  75.9403900
   7.5456200  15.5853390  75.2262130   7.6794960  15.7004500  76.7297780
   2.6201180  27.2013310  73.3737880   2.7213160  26.9977300  72.4439860
   1.7202920  26.9471590  73.5785660   1.7683000  19.1790370  85.3554310
   2.2668250  19.6536190  86.0206160   1.9105950  18.2553890  85.5624340
   4.1742500  14.4844330  78.7957570   4.0510280  14.5030460  77.8467080
   5.1227060  14.5323270  78.9155970   7.2671870  20.6391510  79.6444060
   6.3262010  20.6541740  79.8191750   7.5815940  19.8527470  80.0904360
   9.2697450  27.8100360  81.3198320   9.3944870  28.6331530  81.7922130
  10.1363010  27.5991090  80.9722470   8.9047460  28.3032010  74.2377760
   8.6188970  27.8897150  73.4231940   8.7067010  29.2319720  74.1178280
   3.6097420  23.3585320  73.2825360   3.0607520  23.8054620  73.9268100
   4.2316680  22.8534570  73.8063030   1.7900180  21.3413850  72.4267760
   2.3105840  20.6262870  72.0608910   2.4368580  21.9799720  72.7268270
   5.6519750  13.2017700  74.6535700   5.9322040  12.3585600  75.0095120
   4.8785480  13.4340810  75.1674450   2.3548210  29.4225460  74.7169500
   3.2499000  29.7610430  74.7388260   2.3865840  28.7004870  74.0893780
  10.5744010  25.6946950  72.7605410   9.7436970  25.7623600  73.2312640
  10.7515840  26.5851070  72.4572270  10.0300470  22.4394430  75.2639610
  10.7919380  23.0091080  75.3699300  10.0454840  21.8721630  76.0347920
  11.0360440  23.2944530  80.1081540  11.4069270  22.5111850  79.7017510
  11.6762370  23.9833630  79.9298840   8.0194200  24.6781110  85.5211860
   7.2054040  25.1078270  85.7837650   8.4268400  25.2899520  84.9080910
  10.0819640  22.7328800  72.4212130  10.3568480  23.6407680  72.2931350
   9.8930380  22.6691330  73.3574120   6.4795250  15.7573650  73.7165760
   6.8980130  15.5704630  72.8762420   6.1731310  14.9052700  74.0268690
   9.9784980  20.6697790  77.4141560   9.6028580  19.9025720  76.9822850
   9.2488100  21.0520490  77.9016490   9.2535940  18.8955280  80.7148800
   9.7773420  18.4017930  80.0838970   9.8395360  19.0305640  81.4596370
   9.4325660  18.9795150  84.2368350   8.4828370  18.9458690  84.3513340
   9.6138670  19.8895260  84.0018120   8.7435910  18.1528630  76.6541210
   9.2395030  17.9199500  77.4390090   8.5451980  17.3140470  76.2378850
  10.1723070  16.7889580  79.1878890  10.0622350  16.6345620  80.1261160
  10.9330660  16.2610520  78.9454300   8.5188790  12.7283710  85.6461890
   9.1561010  13.3417850  86.0121080   8.6663680  12.7644370  84.7011120
  11.0613340  14.6197500  72.4285030  11.9862650  14.4878680  72.2203320
  11.0389130  14.6990320  73.3821480  11.1351830  15.3908160  75.0541740
  10.3403330  15.3253280  75.5834650  11.3395110  16.3258800  75.0427090
   8.0770250  29.4299710  79.0480130   8.6729320  29.1084280  78.3714550
   8.3348400  28.9571530  79.8393400  10.9443010  29.4371590  85.5991120
  10.4501290  29.8340460  84.8818250  10.3356300  28.8120800  85.9928400
   5.2675870  12.1012100  84.5198570   4.3935710  12.4347210  84.3171500
   5.1586620  11.6285280  85.3450440   6.1747850  14.3082970  85.9040290
   5.8461210  13.4934730  85.5242020   7.1230150  14.2652780  85.7805980
   8.6282460  30.0795010  82.8777860   8.1685430  30.8310820  82.5035880
   7.9994920  29.3601480  82.8192660   1.7973680  29.2791740  82.8794970
   2.0851490  29.0246040  82.0027980   2.3096900  28.7269100  83.4700540
   3.0150690  13.0181940  83.4591480   2.2322480  13.4927440  83.7388240
   2.7213620  12.1136770  83.3504660   7.5671760  13.7205040  81.5040570
   8.0079850  13.6650140  80.6562170   7.2979350  14.6363050  81.5750750
   9.4310330  13.3520280  79.5149390   9.3698730  12.4081500  79.3680410
  10.2102360  13.4600370  80.0602850   5.4029890  12.1011140  80.2090580
   6.0059260  12.6731350  80.6839100   4.6622880  12.6650580  79.9864480
   8.5464490  12.5032700  75.4830860   8.7415120  13.4016150  75.7498290
   7.7594360  12.2719780  75.9763810  10.0991100  29.7433410  77.2437420
  10.2743290  29.0571150  76.5998340   9.4012670  30.2680460  76.8514090
   4.5583260  20.2998640  60.9520260   4.4777310  19.3853250  60.6811970
   4.1447680  20.7965710  60.2459970   2.6901300  22.0777660  62.8329530
   1.9143400  21.5978100  63.1228100   3.3414230  21.3983310  62.6585690
   6.7108730  26.4837850  61.6128660   6.2490260  25.7125090  61.9415830
   7.5234280  26.5103920  62.1181110   2.9372040  28.7695860  61.2332650
   2.3183480  29.2253360  60.6627090   3.7923820  28.9247320  60.8322350
   2.1310290  24.7534850  62.8399690   2.0618570  23.8124790  62.6788820
   2.8930150  24.8436260  63.4122260   3.1615460  17.5605230  63.0668620
   3.5380280  16.6877110  62.9542290   3.0634970  17.8963930  62.1759060
   6.9439580  15.0555670  59.9996960   7.7649200  14.5652240  60.0422440
   6.9773660  15.6453330  60.7528800  11.2339130  17.0722420  66.5640590
  10.5291300  17.4604130  66.0455700  11.4997050  17.7672710  67.1661520
   3.8035390  23.6535100  58.6264560   3.1852660  24.1184550  58.0627280
   4.3158640  24.3462580  59.0434070   7.1801060  16.9956050  62.7724500
   6.4756630  17.2840940  63.3527610   7.5413220  17.8056160  62.4124060
   8.7963840  26.6131180  65.0351980   8.1127360  27.2830290  65.0268650
   9.3358130  26.8111830  64.2696840  10.2487980  16.4410840  63.1633710
   9.3012890  16.4749820  63.2949140  10.5737970  17.2549790  63.5483070
   6.3322580  28.4575310  63.7497160   6.3449740  28.0537600  62.8819420
   5.7797800  29.2322600  63.6458590   7.6268000  25.1791530  58.8387330
   7.5164330  24.2365860  58.9636750   7.6236250  25.5407170  59.7250090
   5.7308020  23.3605150  65.0779770   6.1476810  23.1465260  64.2433230
   6.4547840  23.6177940  65.6488390   3.1688280  20.8056850  58.1949820
   2.2417560  20.7394230  58.4238290   3.3213100  21.7436980  58.0805060
   3.1557360  17.0773850  55.1916980   2.2161030  17.2387810  55.2769440
   3.4740620  17.7959530  54.6452970   9.6770120  21.7592370  65.1696010
   8.8488750  21.8285460  64.6946140  10.2720600  22.3446680  64.7011840
   7.1985570  22.3677150  58.6985070   6.5797990  22.0296700  58.0511370
   7.1810020  21.7236910  59.4064260   6.6412130  18.5461690  66.1150880
   6.2283310  19.3715400  66.3690870   5.9088080  17.9606730  65.9227240
   7.3312230  28.5921020  66.8031860   6.8542790  29.3993210  66.6104470
   6.6474020  27.9399350  66.9558070   5.3750270  21.6063960  55.7057820
   5.8143550  20.7686390  55.5595640   6.0878690  22.2393360  55.7921960
   3.4845650  26.5460030  59.6739060   3.9241560  27.2884360  59.2594450
   3.4232540  26.7886600  60.5978020   8.9567410  12.8606770  54.0198860
   8.6440070  12.9533600  54.9197930   9.7179880  13.4387800  53.9696290
  10.9111440  28.3532960  71.8723250  11.3871160  28.8315850  72.5512330
  11.5318600  28.2850450  71.1468750  10.3144690  25.5445810  69.0323260
  10.4407750  25.3057690  68.1140440  10.3566070  24.7130350  69.5045340
   4.1761430  29.2473810  67.6018070   4.6906100  29.1581820  68.4040500
   3.3330510  29.5933510  67.8945980   6.1515830  29.5329150  57.0302070
   5.9916970  29.2432090  57.9283900   5.9862540  28.7569280  56.4947300
   5.8541960  27.0416710  55.5900070   5.1607120  27.0394000  54.9302350
   6.5964820  26.6176030  55.1594240   5.4191890  28.6679420  59.6648560
   5.8748840  27.8868800  59.9787180   5.7584410  29.3786240  60.2089740
  10.1668700  17.5978270  69.9973000   9.5512970  18.1057940  69.4688460
   9.8465120  16.6976600  69.9398940   2.2283020  16.4370160  67.4635190
   1.7662390  16.6453180  68.2755130   1.8261130  15.6229510  67.1605860
   7.2287530  17.6579110  68.5931850   6.3781120  17.3584860  68.9140920
   7.0689320  17.9021120  67.6815670   4.3237240  19.1580860  70.6930640
   4.6490650  18.3244610  70.3532870   5.1117570  19.6809380  70.8408970
   4.9625190  18.6998580  58.1871770   4.3634080  19.4234380  58.0035390
   5.5104800  18.6375360  57.4048220   3.5690060  17.3362120  60.2175050
   3.9619630  17.6534320  59.4043740   3.9306910  16.4574000  60.3319570
   4.1545200  19.9267870  64.3125830   3.4226320  20.4354680  64.6615930
   3.7569540  19.1097850  64.0114610   4.6171110  15.3801550  63.7248770
   4.6343850  15.8310200  64.5690620   4.3686690  14.4807190  63.9382210
   8.0441860  12.7933730  69.5635150   8.3687630  12.0623390  70.0893130
   8.0798370  12.4747370  68.6616140   7.9699700  22.9058840  63.1721180
   8.6898820  23.4014130  62.7817290   7.7681520  22.2276730  62.5275050
   3.4309640  14.2996800  57.3150570   2.6174250  13.8009970  57.2395880
   3.2371590  15.1395050  56.8986920   3.3518500  22.9767900  69.0590180
   3.2855810  22.0563570  68.8047770   2.7223640  23.0743340  69.7734820
   6.1458030  18.6716450  55.6112730   7.0337650  18.9833680  55.4364070
   6.1163120  17.7988700  55.2193310   3.2835230  25.7988470  68.8093980
   3.2979770  24.8669430  68.5912890   2.5760330  25.8848230  69.4483750
   8.4172300  19.9828290  55.0792590   8.3336020  20.4142510  54.2289030
   9.1366490  20.4426640  55.5119410   9.4946440  22.4395810  68.1562560
   8.7694630  23.0324590  67.9591950  10.0221900  22.4319350  67.3575930
   9.4459550  26.8370550  57.8074720   8.8035710  26.1826170  58.0818440
   9.0590210  27.2425640  57.0315390   5.0246030  24.1655980  61.6546410
   5.3769850  23.5684110  60.9947780   4.1408360  23.8400210  61.8254660
   2.7169130  27.4406040  65.9034480   3.3611350  27.6465420  66.5807900
   3.0798570  26.6794440  65.4505330   3.9901210  25.4438390  64.6211930
   4.6323440  24.7431550  64.7344100   4.5150560  26.2236830  64.4408820
   7.8356930  25.7287010  54.3451070   7.6094510  25.0117450  54.9375710
   7.4453130  25.4799450  53.5072820   5.7638830  26.2433290  67.8247990
   6.0995070  26.8299980  68.5025910   4.8439170  26.1126000  68.0545780
   7.4173180  23.6458950  56.0065230   7.1294880  24.1071640  56.7943110
   8.2125350  23.1856720  56.2749450   4.8081010  16.5250780  66.3572850
   5.1761830  15.7045990  66.6852420   3.9479210  16.5852670  66.7728500
   8.1743040  15.4807720  57.1660410   7.5456200  15.5853390  56.4518640
   7.6794960  15.7004500  57.9554290   2.6201180  27.2013310  54.5994390
   2.7213160  26.9977300  53.6696370   1.7202920  26.9471590  54.8042170
   1.7683000  19.1790370  66.5810820   2.2668250  19.6536190  67.2462670
   1.9105950  18.2553890  66.7880850   4.1742500  14.4844330  60.0214080
   4.0510280  14.5030460  59.0723590   5.1227060  14.5323270  60.1412480
   8.9749860  15.3958330  67.4239210   8.4723460  16.1363730  67.7633020
   9.7906520  15.7842330  67.1076000   7.2671870  20.6391510  60.8700570
   6.3262010  20.6541740  61.0448260   7.5815940  19.8527470  61.3160870
   9.2697450  27.8100360  62.5454830   9.3944870  28.6331530  63.0178640
  10.1363010  27.5991090  62.1978980   4.5837890  25.1957510  71.3532950
   3.9776050  25.2189110  70.6128700   4.2792000  24.4640550  71.8900200
   6.0138260  28.9237800  69.9642360   6.9660010  28.8395820  69.9142600
   5.8666480  29.5879510  70.6376150   8.9047460  28.3032010  55.4634270
   8.6188970  27.8897150  54.6488450   8.7067010  29.2319720  55.3434790
   3.6097420  23.3585320  54.5081870   3.0607520  23.8054620  55.1524610
   4.2316680  22.8534570  55.0319540   7.6632360  24.7127420  70.4404130
   8.4041830  25.0503180  69.9371590   6.9005040  24.8819480  69.8873900
   1.7900180  21.3413850  53.6524270   2.3105840  20.6262870  53.2865420
   2.4368580  21.9799720  53.9524780   6.3378020  22.7642250  68.9759340
   6.7519040  22.9187330  69.8249760   5.4029020  22.8897470  69.1385120
   6.8100190  20.1038410  70.9798490   7.3920960  19.3490730  70.8918970
   6.9861960  20.6345850  70.2029970   3.4357150  20.4478910  68.3293110
   3.5553360  19.8520050  69.0687950   4.2951150  20.4848600  67.9094410
   5.7745050  21.0016100  66.9055620   5.2480270  21.5258720  66.3020760
   6.1176390  21.6343490  67.5365350   5.0219350  16.6066070  69.8201950
   4.3334870  15.9447610  69.7551940   5.7425370  16.1604340  70.2650410
   5.6519750  13.2017700  55.8792210   5.9322040  12.3585600  56.2351630
   4.8785480  13.4340810  56.3930960   2.3548210  29.4225460  55.9426010
   3.2499000  29.7610430  55.9644770   2.3865840  28.7004870  55.3150290
   9.3342560  27.9529130  68.6492210   8.7344550  28.0121690  67.9056130
   9.4636460  27.0134110  68.7789060  10.5744010  25.6946950  53.9861920
   9.7436970  25.7623600  54.4569150  10.7515840  26.5851070  53.6828780
  10.0300470  22.4394430  56.4896120  10.7919380  23.0091080  56.5955810
  10.0454840  21.8721630  57.2604430  11.0360440  23.2944530  61.3338050
  11.4069270  22.5111850  60.9274020  11.6762370  23.9833630  61.1555350
   8.0194200  24.6781110  66.7468370   7.2054040  25.1078270  67.0094160
   8.4268400  25.2899520  66.1337420  10.0819640  22.7328800  53.6468640
  10.3568480  23.6407680  53.5187860   9.8930380  22.6691330  54.5830630
   6.4795250  15.7573650  54.9422270   6.8980130  15.5704630  54.1018930
   6.1731310  14.9052700  55.2525200   9.9784980  20.6697790  58.6398070
   9.6028580  19.9025720  58.2079360   9.2488100  21.0520490  59.1273000
   9.3684600  19.8169310  68.2737590   9.1370690  19.5882060  67.3735540
   9.6289150  20.7368860  68.2282480   7.8072670  15.0425740  71.0517290
   8.6842850  15.0509140  71.4351290   7.8193510  14.3056580  70.4409640
   9.2535940  18.8955280  61.9405310   9.7773420  18.4017930  61.3095480
   9.8395360  19.0305640  62.6852880   9.4325660  18.9795150  65.4624860
   8.4828370  18.9458690  65.5769850   9.6138670  19.8895260  65.2274630
   8.7435910  18.1528630  57.8797720   9.2395030  17.9199500  58.6646600
   8.5451980  17.3140470  57.4635360  10.1723070  16.7889580  60.4135400
  10.0622350  16.6345620  61.3517670  10.9330660  16.2610520  60.1710810
   8.5188790  12.7283710  66.8718400   9.1561010  13.3417850  67.2377590
   8.6663680  12.7644370  65.9267630  11.0613340  14.6197500  53.6541540
  11.9862650  14.4878680  53.4459830  11.0389130  14.6990320  54.6077990
  11.1351830  15.3908160  56.2798250  10.3403330  15.3253280  56.8091160
  11.3395110  16.3258800  56.2683600   8.0770250  29.4299710  60.2736640
   8.6729320  29.1084280  59.5971060   8.3348400  28.9571530  61.0649910
   1.8893270  13.8809900  69.7793500   1.8282160  14.4731730  70.5288910
   2.8293650  13.7735860  69.6343760   4.5267830  13.5379960  69.4185790
   5.1408240  13.8559250  68.7566870   5.0717390  13.0528550  70.0381650
  10.9443010  29.4371590  66.8247630  10.4501290  29.8340460  66.1074760
  10.3356300  28.8120800  67.2184910   5.2675870  12.1012100  65.7455080
   4.3935710  12.4347210  65.5428010   5.1586620  11.6285280  66.5706950
   6.1747850  14.3082970  67.1296800   5.8461210  13.4934730  66.7498530
   7.1230150  14.2652780  67.0062490   8.6282460  30.0795010  64.1034370
   8.1685430  30.8310820  63.7292390   7.9994920  29.3601480  64.0449170
   1.7973680  29.2791740  64.1051480   2.0851490  29.0246040  63.2284490
   2.3096900  28.7269100  64.6957050   3.0150690  13.0181940  64.6847990
   2.2322480  13.4927440  64.9644750   2.7213620  12.1136770  64.5761170
   7.5671760  13.7205040  62.7297080   8.0079850  13.6650140  61.8818680
   7.2979350  14.6363050  62.8007260   9.4310330  13.3520280  60.7405900
   9.3698730  12.4081500  60.5936920  10.2102360  13.4600370  61.2859360
   5.4029890  12.1011140  61.4347090   6.0059260  12.6731350  61.9095610
   4.6622880  12.6650580  61.2120990   8.5464490  12.5032700  56.7087370
   8.7415120  13.4016150  56.9754800   7.7594360  12.2719780  57.2020320
   1.8646040  30.2007840  71.4719680   2.7913350  29.9652110  71.5155640
   1.8496470  31.0279840  70.9905710  10.0991100  29.7433410  58.4693930
  10.2743290  29.0571150  57.8254850   9.4012670  30.2680460  58.0770600
   5.6525110  12.2806170  71.8142030   5.5390560  12.6000780  72.7093550
   6.4694850  12.6818680  71.5179310   8.4323600  29.4277700  71.2960720
   9.2248920  28.9326930  71.0886680   8.7256750  30.1067840  71.9036330
   4.5583260  20.2998640  42.1776770   4.4777310  19.3853250  41.9068480
   4.1447680  20.7965710  41.4716480   2.6901300  22.0777660  44.0586040
   1.9143400  21.5978100  44.3484610   3.3414230  21.3983310  43.8842200
   6.7108730  26.4837850  42.8385170   6.2490260  25.7125090  43.1672340
   7.5234280  26.5103920  43.3437620   2.9372040  28.7695860  42.4589160
   2.3183480  29.2253360  41.8883600   3.7923820  28.9247320  42.0578860
   2.1310290  24.7534850  44.0656200   2.0618570  23.8124790  43.9045330
   2.8930150  24.8436260  44.6378770   3.1615460  17.5605230  44.2925130
   3.5380280  16.6877110  44.1798800   3.0634970  17.8963930  43.4015570
   6.9439580  15.0555670  41.2253470   7.7649200  14.5652240  41.2678950
   6.9773660  15.6453330  41.9785310  11.2339130  17.0722420  47.7897100
  10.5291300  17.4604130  47.2712210  11.4997050  17.7672710  48.3918030
   3.8035390  23.6535100  39.8521070   3.1852660  24.1184550  39.2883790
   4.3158640  24.3462580  40.2690580   7.1801060  16.9956050  43.9981010
   6.4756630  17.2840940  44.5784120   7.5413220  17.8056160  43.6380570
   8.7963840  26.6131180  46.2608490   8.1127360  27.2830290  46.2525160
   9.3358130  26.8111830  45.4953350  10.2487980  16.4410840  44.3890220
   9.3012890  16.4749820  44.5205650  10.5737970  17.2549790  44.7739580
   6.3322580  28.4575310  44.9753670   6.3449740  28.0537600  44.1075930
   5.7797800  29.2322600  44.8715100   7.6268000  25.1791530  40.0643840
   7.5164330  24.2365860  40.1893260   7.6236250  25.5407170  40.9506600
   5.7308020  23.3605150  46.3036280   6.1476810  23.1465260  45.4689740
   6.4547840  23.6177940  46.8744900   3.1688280  20.8056850  39.4206330
   2.2417560  20.7394230  39.6494800   3.3213100  21.7436980  39.3061570
   3.1557360  17.0773850  36.4173490   2.2161030  17.2387810  36.5025950
   3.4740620  17.7959530  35.8709480   9.6770120  21.7592370  46.3952520
   8.8488750  21.8285460  45.9202650  10.2720600  22.3446680  45.9268350
   7.1985570  22.3677150  39.9241580   6.5797990  22.0296700  39.2767880
   7.1810020  21.7236910  40.6320770   6.6412130  18.5461690  47.3407390
   6.2283310  19.3715400  47.5947380   5.9088080  17.9606730  47.1483750
   7.3312230  28.5921020  48.0288370   6.8542790  29.3993210  47.8360980
   6.6474020  27.9399350  48.1814580   5.3750270  21.6063960  36.9314330
   5.8143550  20.7686390  36.7852150   6.0878690  22.2393360  37.0178470
   3.4845650  26.5460030  40.8995570   3.9241560  27.2884360  40.4850960
   3.4232540  26.7886600  41.8234530   8.9567410  12.8606770  35.2455370
   8.6440070  12.9533600  36.1454440   9.7179880  13.4387800  35.1952800
  10.9111440  28.3532960  53.0979760  11.3871160  28.8315850  53.7768840
  11.5318600  28.2850450  52.3725260  10.3144690  25.5445810  50.2579770
  10.4407750  25.3057690  49.3396950  10.3566070  24.7130350  50.7301850
   4.1761430  29.2473810  48.8274580   4.6906100  29.1581820  49.6297010
   3.3330510  29.5933510  49.1202490   6.1515830  29.5329150  38.2558580
   5.9916970  29.2432090  39.1540410   5.9862540  28.7569280  37.7203810
   5.8541960  27.0416710  36.8156580   5.1607120  27.0394000  36.1558860
   6.5964820  26.6176030  36.3850750   5.4191890  28.6679420  40.8905070
   5.8748840  27.8868800  41.2043690   5.7584410  29.3786240  41.4346250
  10.1668700  17.5978270  51.2229510   9.5512970  18.1057940  50.6944970
   9.8465120  16.6976600  51.1655450   2.2283020  16.4370160  48.6891700
   1.7662390  16.6453180  49.5011640   1.8261130  15.6229510  48.3862370
   7.2287530  17.6579110  49.8188360   6.3781120  17.3584860  50.1397430
   7.0689320  17.9021120  48.9072180   4.3237240  19.1580860  51.9187150
   4.6490650  18.3244610  51.5789380   5.1117570  19.6809380  52.0665480
   4.9625190  18.6998580  39.4128280   4.3634080  19.4234380  39.2291900
   5.5104800  18.6375360  38.6304730   3.5690060  17.3362120  41.4431560
   3.9619630  17.6534320  40.6300250   3.9306910  16.4574000  41.5576080
   4.1545200  19.9267870  45.5382340   3.4226320  20.4354680  45.8872440
   3.7569540  19.1097850  45.2371120   4.6171110  15.3801550  44.9505280
   4.6343850  15.8310200  45.7947130   4.3686690  14.4807190  45.1638720
   8.0441860  12.7933730  50.7891660   8.3687630  12.0623390  51.3149640
   8.0798370  12.4747370  49.8872650   7.9699700  22.9058840  44.3977690
   8.6898820  23.4014130  44.0073800   7.7681520  22.2276730  43.7531560
   3.4309640  14.2996800  38.5407080   2.6174250  13.8009970  38.4652390
   3.2371590  15.1395050  38.1243430   3.3518500  22.9767900  50.2846690
   3.2855810  22.0563570  50.0304280   2.7223640  23.0743340  50.9991330
   6.1458030  18.6716450  36.8369240   7.0337650  18.9833680  36.6620580
   6.1163120  17.7988700  36.4449820   3.2835230  25.7988470  50.0350490
   3.2979770  24.8669430  49.8169400   2.5760330  25.8848230  50.6740260
   8.4172300  19.9828290  36.3049100   8.3336020  20.4142510  35.4545540
   9.1366490  20.4426640  36.7375920   9.4946440  22.4395810  49.3819070
   8.7694630  23.0324590  49.1848460  10.0221900  22.4319350  48.5832440
   9.4459550  26.8370550  39.0331230   8.8035710  26.1826170  39.3074950
   9.0590210  27.2425640  38.2571900   5.0246030  24.1655980  42.8802920
   5.3769850  23.5684110  42.2204290   4.1408360  23.8400210  43.0511170
   2.7169130  27.4406040  47.1290990   3.3611350  27.6465420  47.8064410
   3.0798570  26.6794440  46.6761840   3.9901210  25.4438390  45.8468440
   4.6323440  24.7431550  45.9600610   4.5150560  26.2236830  45.6665330
   7.8356930  25.7287010  35.5707580   7.6094510  25.0117450  36.1632220
   7.4453130  25.4799450  34.7329330   5.7638830  26.2433290  49.0504500
   6.0995070  26.8299980  49.7282420   4.8439170  26.1126000  49.2802290
   7.4173180  23.6458950  37.2321740   7.1294880  24.1071640  38.0199620
   8.2125350  23.1856720  37.5005960   4.8081010  16.5250780  47.5829360
   5.1761830  15.7045990  47.9108930   3.9479210  16.5852670  47.9985010
   8.1743040  15.4807720  38.3916920   7.5456200  15.5853390  37.6775150
   7.6794960  15.7004500  39.1810800   2.6201180  27.2013310  35.8250900
   2.7213160  26.9977300  34.8952880   1.7202920  26.9471590  36.0298680
   1.7683000  19.1790370  47.8067330   2.2668250  19.6536190  48.4719180
   1.9105950  18.2553890  48.0137360   4.1742500  14.4844330  41.2470590
   4.0510280  14.5030460  40.2980100   5.1227060  14.5323270  41.3668990
   8.9749860  15.3958330  48.6495720   8.4723460  16.1363730  48.9889530
   9.7906520  15.7842330  48.3332510   7.2671870  20.6391510  42.0957080
   6.3262010  20.6541740  42.2704770   7.5815940  19.8527470  42.5417380
   9.2697450  27.8100360  43.7711340   9.3944870  28.6331530  44.2435150
  10.1363010  27.5991090  43.4235490   4.5837890  25.1957510  52.5789460
   3.9776050  25.2189110  51.8385210   4.2792000  24.4640550  53.1156710
   6.0138260  28.9237800  51.1898870   6.9660010  28.8395820  51.1399110
   5.8666480  29.5879510  51.8632660   8.9047460  28.3032010  36.6890780
   8.6188970  27.8897150  35.8744960   8.7067010  29.2319720  36.5691300
   3.6097420  23.3585320  35.7338380   3.0607520  23.8054620  36.3781120
   4.2316680  22.8534570  36.2576050   7.6632360  24.7127420  51.6660640
   8.4041830  25.0503180  51.1628100   6.9005040  24.8819480  51.1130410
   1.7900180  21.3413850  34.8780780   2.3105840  20.6262870  34.5121930
   2.4368580  21.9799720  35.1781290   6.3378020  22.7642250  50.2015850
   6.7519040  22.9187330  51.0506270   5.4029020  22.8897470  50.3641630
   6.8100190  20.1038410  52.2055000   7.3920960  19.3490730  52.1175480
   6.9861960  20.6345850  51.4286480   3.4357150  20.4478910  49.5549620
   3.5553360  19.8520050  50.2944460   4.2951150  20.4848600  49.1350920
   5.7745050  21.0016100  48.1312130   5.2480270  21.5258720  47.5277270
   6.1176390  21.6343490  48.7621860   5.0219350  16.6066070  51.0458460
   4.3334870  15.9447610  50.9808450   5.7425370  16.1604340  51.4906920
   5.6519750  13.2017700  37.1048720   5.9322040  12.3585600  37.4608140
   4.8785480  13.4340810  37.6187470   2.3548210  29.4225460  37.1682520
   3.2499000  29.7610430  37.1901280   2.3865840  28.7004870  36.5406800
   9.3342560  27.9529130  49.8748720   8.7344550  28.0121690  49.1312640
   9.4636460  27.0134110  50.0045570  10.5744010  25.6946950  35.2118430
   9.7436970  25.7623600  35.6825660  10.7515840  26.5851070  34.9085290
  10.0300470  22.4394430  37.7152630  10.7919380  23.0091080  37.8212320
  10.0454840  21.8721630  38.4860940  11.0360440  23.2944530  42.5594560
  11.4069270  22.5111850  42.1530530  11.6762370  23.9833630  42.3811860
   8.0194200  24.6781110  47.9724880   7.2054040  25.1078270  48.2350670
   8.4268400  25.2899520  47.3593930  10.0819640  22.7328800  34.8725150
  10.3568480  23.6407680  34.7444370   9.8930380  22.6691330  35.8087140
   6.4795250  15.7573650  36.1678780   6.8980130  15.5704630  35.3275440
   6.1731310  14.9052700  36.4781710   9.9784980  20.6697790  39.8654580
   9.6028580  19.9025720  39.4335870   9.2488100  21.0520490  40.3529510
   9.3684600  19.8169310  49.4994100   9.1370690  19.5882060  48.5992050
   9.6289150  20.7368860  49.4538990   7.8072670  15.0425740  52.2773800
   8.6842850  15.0509140  52.6607800   7.8193510  14.3056580  51.6666150
   9.2535940  18.8955280  43.1661820   9.7773420  18.4017930  42.5351990
   9.8395360  19.0305640  43.9109390   9.4325660  18.9795150  46.6881370
   8.4828370  18.9458690  46.8026360   9.6138670  19.8895260  46.4531140
   8.7435910  18.1528630  39.1054230   9.2395030  17.9199500  39.8903110
   8.5451980  17.3140470  38.6891870  10.1723070  16.7889580  41.6391910
  10.0622350  16.6345620  42.5774180  10.9330660  16.2610520  41.3967320
   8.5188790  12.7283710  48.0974910   9.1561010  13.3417850  48.4634100
   8.6663680  12.7644370  47.1524140  11.0613340  14.6197500  34.8798050
  11.9862650  14.4878680  34.6716340  11.0389130  14.6990320  35.8334500
  11.1351830  15.3908160  37.5054760  10.3403330  15.3253280  38.0347670
  11.3395110  16.3258800  37.4940110   8.0770250  29.4299710  41.4993150
   8.6729320  29.1084280  40.8227570   8.3348400  28.9571530  42.2906420
   1.8893270  13.8809900  51.0050010   1.8282160  14.4731730  51.7545420
   2.8293650  13.7735860  50.8600270   4.5267830  13.5379960  50.6442300
   5.1408240  13.8559250  49.9823380   5.0717390  13.0528550  51.2638160
  10.9443010  29.4371590  48.0504140  10.4501290  29.8340460  47.3331270
  10.3356300  28.8120800  48.4441420   5.2675870  12.1012100  46.9711590
   4.3935710  12.4347210  46.7684520   5.1586620  11.6285280  47.7963460
   6.1747850  14.3082970  48.3553310   5.8461210  13.4934730  47.9755040
   7.1230150  14.2652780  48.2319000   8.6282460  30.0795010  45.3290880
   8.1685430  30.8310820  44.9548900   7.9994920  29.3601480  45.2705680
   1.7973680  29.2791740  45.3307990   2.0851490  29.0246040  44.4541000
   2.3096900  28.7269100  45.9213560   3.0150690  13.0181940  45.9104500
   2.2322480  13.4927440  46.1901260   2.7213620  12.1136770  45.8017680
   7.5671760  13.7205040  43.9553590   8.0079850  13.6650140  43.1075190
   7.2979350  14.6363050  44.0263770   9.4310330  13.3520280  41.9662410
   9.3698730  12.4081500  41.8193430  10.2102360  13.4600370  42.5115870
   5.4029890  12.1011140  42.6603600   6.0059260  12.6731350  43.1352120
   4.6622880  12.6650580  42.4377500   8.5464490  12.5032700  37.9343880
   8.7415120  13.4016150  38.2011310   7.7594360  12.2719780  38.4276830
   1.8646040  30.2007840  52.6976190   2.7913350  29.9652110  52.7412150
   1.8496470  31.0279840  52.2162220  10.0991100  29.7433410  39.6950440
  10.2743290  29.0571150  39.0511360   9.4012670  30.2680460  39.3027110
   5.6525110  12.2806170  53.0398540   5.5390560  12.6000780  53.9350060
   6.4694850  12.6818680  52.7435820   8.4323600  29.4277700  52.5217230
   9.2248920  28.9326930  52.3143190   8.7256750  30.1067840  53.1292840
   4.5583260  20.2998640  23.4033280   4.4777310  19.3853250  23.1324990
   4.1447680  20.7965710  22.6972990   2.6901300  22.0777660  25.2842550
   1.9143400  21.5978100  25.5741120   3.3414230  21.3983310  25.1098710
   6.7108730  26.4837850  24.0641680   6.2490260  25.7125090  24.3928850
   7.5234280  26.5103920  24.5694130   2.9372040  28.7695860  23.6845670
   2.3183480  29.2253360  23.1140110   3.7923820  28.9247320  23.2835370
   2.1310290  24.7534850  25.2912710   2.0618570  23.8124790  25.1301840
   2.8930150  24.8436260  25.8635280   3.1615460  17.5605230  25.5181640
   3.5380280  16.6877110  25.4055310   3.0634970  17.8963930  24.6272080
   6.9439580  15.0555670  22.4509980   7.7649200  14.5652240  22.4935460
   6.9773660  15.6453330  23.2041820  11.2339130  17.0722420  29.0153610
  10.5291300  17.4604130  28.4968720  11.4997050  17.7672710  29.6174540
   3.8035390  23.6535100  21.0777580   3.1852660  24.1184550  20.5140300
   4.3158640  24.3462580  21.4947090   7.1801060  16.9956050  25.2237520
   6.4756630  17.2840940  25.8040630   7.5413220  17.8056160  24.8637080
   8.7963840  26.6131180  27.4865000   8.1127360  27.2830290  27.4781670
   9.3358130  26.8111830  26.7209860  10.2487980  16.4410840  25.6146730
   9.3012890  16.4749820  25.7462160  10.5737970  17.2549790  25.9996090
   6.3322580  28.4575310  26.2010180   6.3449740  28.0537600  25.3332440
   5.7797800  29.2322600  26.0971610   7.6268000  25.1791530  21.2900350
   7.5164330  24.2365860  21.4149770   7.6236250  25.5407170  22.1763110
   5.7308020  23.3605150  27.5292790   6.1476810  23.1465260  26.6946250
   6.4547840  23.6177940  28.1001410   3.1688280  20.8056850  20.6462840
   2.2417560  20.7394230  20.8751310   3.3213100  21.7436980  20.5318080
   3.1557360  17.0773850  17.6430000   2.2161030  17.2387810  17.7282460
   3.4740620  17.7959530  17.0965990   9.6770120  21.7592370  27.6209030
   8.8488750  21.8285460  27.1459160  10.2720600  22.3446680  27.1524860
   7.1985570  22.3677150  21.1498090   6.5797990  22.0296700  20.5024390
   7.1810020  21.7236910  21.8577280   6.6412130  18.5461690  28.5663900
   6.2283310  19.3715400  28.8203890   5.9088080  17.9606730  28.3740260
   7.3312230  28.5921020  29.2544880   6.8542790  29.3993210  29.0617490
   6.6474020  27.9399350  29.4071090   5.3750270  21.6063960  18.1570840
   5.8143550  20.7686390  18.0108660   6.0878690  22.2393360  18.2434980
   3.4845650  26.5460030  22.1252080   3.9241560  27.2884360  21.7107470
   3.4232540  26.7886600  23.0491040   8.9567410  12.8606770  16.4711880
   8.6440070  12.9533600  17.3710950   9.7179880  13.4387800  16.4209310
  10.9111440  28.3532960  34.3236270  11.3871160  28.8315850  35.0025350
  11.5318600  28.2850450  33.5981770  10.3144690  25.5445810  31.4836280
  10.4407750  25.3057690  30.5653460  10.3566070  24.7130350  31.9558360
   4.1761430  29.2473810  30.0531090   4.6906100  29.1581820  30.8553520
   3.3330510  29.5933510  30.3459000   6.1515830  29.5329150  19.4815090
   5.9916970  29.2432090  20.3796920   5.9862540  28.7569280  18.9460320
   5.8541960  27.0416710  18.0413090   5.1607120  27.0394000  17.3815370
   6.5964820  26.6176030  17.6107260   5.4191890  28.6679420  22.1161580
   5.8748840  27.8868800  22.4300200   5.7584410  29.3786240  22.6602760
  10.1668700  17.5978270  32.4486020   9.5512970  18.1057940  31.9201480
   9.8465120  16.6976600  32.3911960   2.2283020  16.4370160  29.9148210
   1.7662390  16.6453180  30.7268150   1.8261130  15.6229510  29.6118880
   7.2287530  17.6579110  31.0444870   6.3781120  17.3584860  31.3653940
   7.0689320  17.9021120  30.1328690   4.3237240  19.1580860  33.1443660
   4.6490650  18.3244610  32.8045890   5.1117570  19.6809380  33.2921990
   4.9625190  18.6998580  20.6384790   4.3634080  19.4234380  20.4548410
   5.5104800  18.6375360  19.8561240   3.5690060  17.3362120  22.6688070
   3.9619630  17.6534320  21.8556760   3.9306910  16.4574000  22.7832590
   4.1545200  19.9267870  26.7638850   3.4226320  20.4354680  27.1128950
   3.7569540  19.1097850  26.4627630   4.6171110  15.3801550  26.1761790
   4.6343850  15.8310200  27.0203640   4.3686690  14.4807190  26.3895230
   8.0441860  12.7933730  32.0148170   8.3687630  12.0623390  32.5406150
   8.0798370  12.4747370  31.1129160   7.9699700  22.9058840  25.6234200
   8.6898820  23.4014130  25.2330310   7.7681520  22.2276730  24.9788070
   3.4309640  14.2996800  19.7663590   2.6174250  13.8009970  19.6908900
   3.2371590  15.1395050  19.3499940   3.3518500  22.9767900  31.5103200
   3.2855810  22.0563570  31.2560790   2.7223640  23.0743340  32.2247840
   6.1458030  18.6716450  18.0625750   7.0337650  18.9833680  17.8877090
   6.1163120  17.7988700  17.6706330   3.2835230  25.7988470  31.2607000
   3.2979770  24.8669430  31.0425910   2.5760330  25.8848230  31.8996770
   8.4172300  19.9828290  17.5305610   8.3336020  20.4142510  16.6802050
   9.1366490  20.4426640  17.9632430   9.4946440  22.4395810  30.6075580
   8.7694630  23.0324590  30.4104970  10.0221900  22.4319350  29.8088950
   9.4459550  26.8370550  20.2587740   8.8035710  26.1826170  20.5331460
   9.0590210  27.2425640  19.4828410   5.0246030  24.1655980  24.1059430
   5.3769850  23.5684110  23.4460800   4.1408360  23.8400210  24.2767680
   2.7169130  27.4406040  28.3547500   3.3611350  27.6465420  29.0320920
   3.0798570  26.6794440  27.9018350   3.9901210  25.4438390  27.0724950
   4.6323440  24.7431550  27.1857120   4.5150560  26.2236830  26.8921840
   7.8356930  25.7287010  16.7964090   7.6094510  25.0117450  17.3888730
   7.4453130  25.4799450  15.9585840   5.7638830  26.2433290  30.2761010
   6.0995070  26.8299980  30.9538930   4.8439170  26.1126000  30.5058800
   7.4173180  23.6458950  18.4578250   7.1294880  24.1071640  19.2456130
   8.2125350  23.1856720  18.7262470   4.8081010  16.5250780  28.8085870
   5.1761830  15.7045990  29.1365440   3.9479210  16.5852670  29.2241520
   8.1743040  15.4807720  19.6173430   7.5456200  15.5853390  18.9031660
   7.6794960  15.7004500  20.4067310   2.6201180  27.2013310  17.0507410
   2.7213160  26.9977300  16.1209390   1.7202920  26.9471590  17.2555190
   1.7683000  19.1790370  29.0323840   2.2668250  19.6536190  29.6975690
   1.9105950  18.2553890  29.2393870   4.1742500  14.4844330  22.4727100
   4.0510280  14.5030460  21.5236610   5.1227060  14.5323270  22.5925500
   8.9749860  15.3958330  29.8752230   8.4723460  16.1363730  30.2146040
   9.7906520  15.7842330  29.5589020   7.2671870  20.6391510  23.3213590
   6.3262010  20.6541740  23.4961280   7.5815940  19.8527470  23.7673890
   9.2697450  27.8100360  24.9967850   9.3944870  28.6331530  25.4691660
  10.1363010  27.5991090  24.6492000   4.5837890  25.1957510  33.8045970
   3.9776050  25.2189110  33.0641720   4.2792000  24.4640550  34.3413220
   6.0138260  28.9237800  32.4155380   6.9660010  28.8395820  32.3655620
   5.8666480  29.5879510  33.0889170   8.9047460  28.3032010  17.9147290
   8.6188970  27.8897150  17.1001470   8.7067010  29.2319720  17.7947810
   3.6097420  23.3585320  16.9594890   3.0607520  23.8054620  17.6037630
   4.2316680  22.8534570  17.4832560   7.6632360  24.7127420  32.8917150
   8.4041830  25.0503180  32.3884610   6.9005040  24.8819480  32.3386920
   1.7900180  21.3413850  16.1037290   2.3105840  20.6262870  15.7378440
   2.4368580  21.9799720  16.4037800   6.3378020  22.7642250  31.4272360
   6.7519040  22.9187330  32.2762780   5.4029020  22.8897470  31.5898140
   6.8100190  20.1038410  33.4311510   7.3920960  19.3490730  33.3431990
   6.9861960  20.6345850  32.6542990   3.4357150  20.4478910  30.7806130
   3.5553360  19.8520050  31.5200970   4.2951150  20.4848600  30.3607430
   5.7745050  21.0016100  29.3568640   5.2480270  21.5258720  28.7533780
   6.1176390  21.6343490  29.9878370   5.0219350  16.6066070  32.2714970
   4.3334870  15.9447610  32.2064960   5.7425370  16.1604340  32.7163430
   5.6519750  13.2017700  18.3305230   5.9322040  12.3585600  18.6864650
   4.8785480  13.4340810  18.8443980   2.3548210  29.4225460  18.3939030
   3.2499000  29.7610430  18.4157790   2.3865840  28.7004870  17.7663310
   9.3342560  27.9529130  31.1005230   8.7344550  28.0121690  30.3569150
   9.4636460  27.0134110  31.2302080  10.5744010  25.6946950  16.4374940
   9.7436970  25.7623600  16.9082170  10.7515840  26.5851070  16.1341800
  10.0300470  22.4394430  18.9409140  10.7919380  23.0091080  19.0468830
  10.0454840  21.8721630  19.7117450  11.0360440  23.2944530  23.7851070
  11.4069270  22.5111850  23.3787040  11.6762370  23.9833630  23.6068370
   8.0194200  24.6781110  29.1981390   7.2054040  25.1078270  29.4607180
   8.4268400  25.2899520  28.5850440  10.0819640  22.7328800  16.0981660
  10.3568480  23.6407680  15.9700880   9.8930380  22.6691330  17.0343650
   6.4795250  15.7573650  17.3935290   6.8980130  15.5704630  16.5531950
   6.1731310  14.9052700  17.7038220   9.9784980  20.6697790  21.0911090
   9.6028580  19.9025720  20.6592380   9.2488100  21.0520490  21.5786020
   9.3684600  19.8169310  30.7250610   9.1370690  19.5882060  29.8248560
   9.6289150  20.7368860  30.6795500   7.8072670  15.0425740  33.5030310
   8.6842850  15.0509140  33.8864310   7.8193510  14.3056580  32.8922660
   9.2535940  18.8955280  24.3918330   9.7773420  18.4017930  23.7608500
   9.8395360  19.0305640  25.1365900   9.4325660  18.9795150  27.9137880
   8.4828370  18.9458690  28.0282870   9.6138670  19.8895260  27.6787650
   8.7435910  18.1528630  20.3310740   9.2395030  17.9199500  21.1159620
   8.5451980  17.3140470  19.9148380  10.1723070  16.7889580  22.8648420
  10.0622350  16.6345620  23.8030690  10.9330660  16.2610520  22.6223830
   8.5188790  12.7283710  29.3231420   9.1561010  13.3417850  29.6890610
   8.6663680  12.7644370  28.3780650  11.0613340  14.6197500  16.1054560
  11.9862650  14.4878680  15.8972850  11.0389130  14.6990320  17.0591010
  11.1351830  15.3908160  18.7311270  10.3403330  15.3253280  19.2604180
  11.3395110  16.3258800  18.7196620   8.0770250  29.4299710  22.7249660
   8.6729320  29.1084280  22.0484080   8.3348400  28.9571530  23.5162930
   1.8893270  13.8809900  32.2306520   1.8282160  14.4731730  32.9801930
   2.8293650  13.7735860  32.0856780   4.5267830  13.5379960  31.8698810
   5.1408240  13.8559250  31.2079890   5.0717390  13.0528550  32.4894670
  10.9443010  29.4371590  29.2760650  10.4501290  29.8340460  28.5587780
  10.3356300  28.8120800  29.6697930   5.2675870  12.1012100  28.1968100
   4.3935710  12.4347210  27.9941030   5.1586620  11.6285280  29.0219970
   6.1747850  14.3082970  29.5809820   5.8461210  13.4934730  29.2011550
   7.1230150  14.2652780  29.4575510   8.6282460  30.0795010  26.5547390
   8.1685430  30.8310820  26.1805410   7.9994920  29.3601480  26.4962190
   1.7973680  29.2791740  26.5564500   2.0851490  29.0246040  25.6797510
   2.3096900  28.7269100  27.1470070   3.0150690  13.0181940  27.1361010
   2.2322480  13.4927440  27.4157770   2.7213620  12.1136770  27.0274190
   7.5671760  13.7205040  25.1810100   8.0079850  13.6650140  24.3331700
   7.2979350  14.6363050  25.2520280   9.4310330  13.3520280  23.1918920
   9.3698730  12.4081500  23.0449940  10.2102360  13.4600370  23.7372380
   5.4029890  12.1011140  23.8860110   6.0059260  12.6731350  24.3608630
   4.6622880  12.6650580  23.6634010   8.5464490  12.5032700  19.1600390
   8.7415120  13.4016150  19.4267820   7.7594360  12.2719780  19.6533340
   1.8646040  30.2007840  33.9232700   2.7913350  29.9652110  33.9668660
   1.8496470  31.0279840  33.4418730  10.0991100  29.7433410  20.9206950
  10.2743290  29.0571150  20.2767870   9.4012670  30.2680460  20.5283620
   5.6525110  12.2806170  34.2655050   5.5390560  12.6000780  35.1606570
   6.4694850  12.6818680  33.9692330   8.4323600  29.4277700  33.7473740
   9.2248920  28.9326930  33.5399700   8.7256750  30.1067840  34.3549350
   4.5583260  20.2998640   4.6289790   4.4777310  19.3853250   4.3581500
   4.1447680  20.7965710   3.9229500   2.6901300  22.0777660   6.5099060
   1.9143400  21.5978100   6.7997630   3.3414230  21.3983310   6.3355220
   6.7108730  26.4837850   5.2898190   6.2490260  25.7125090   5.6185360
   7.5234280  26.5103920   5.7950640   2.9372040  28.7695860   4.9102180
   2.3183480  29.2253360   4.3396620   3.7923820  28.9247320   4.5091880
   2.1310290  24.7534850   6.5169220   2.0618570  23.8124790   6.3558350
   2.8930150  24.8436260   7.0891790   3.1615460  17.5605230   6.7438150
   3.5380280  16.6877110   6.6311820   3.0634970  17.8963930   5.8528590
   6.9439580  15.0555670   3.6766490   7.7649200  14.5652240   3.7191970
   6.9773660  15.6453330   4.4298330  11.2339130  17.0722420  10.2410120
  10.5291300  17.4604130   9.7225230  11.4997050  17.7672710  10.8431050
   3.8035390  23.6535100   2.3034090   3.1852660  24.1184550   1.7396810
   4.3158640  24.3462580   2.7203600   7.1801060  16.9956050   6.4494030
   6.4756630  17.2840940   7.0297140   7.5413220  17.8056160   6.0893590
   8.7963840  26.6131180   8.7121510   8.1127360  27.2830290   8.7038180
   9.3358130  26.8111830   7.9466370  10.2487980  16.4410840   6.8403240
   9.3012890  16.4749820   6.9718670  10.5737970  17.2549790   7.2252600
   6.3322580  28.4575310   7.4266690   6.3449740  28.0537600   6.5588950
   5.7797800  29.2322600   7.3228120   7.6268000  25.1791530   2.5156860
   7.5164330  24.2365860   2.6406280   7.6236250  25.5407170   3.4019620
   5.7308020  23.3605150   8.7549300   6.1476810  23.1465260   7.9202760
   6.4547840  23.6177940   9.3257920   3.1688280  20.8056850   1.8719350
   2.2417560  20.7394230   2.1007820   3.3213100  21.7436980   1.7574590
   9.6770120  21.7592370   8.8465540   8.8488750  21.8285460   8.3715670
  10.2720600  22.3446680   8.3781370   7.1985570  22.3677150   2.3754600
   6.5797990  22.0296700   1.7280900   7.1810020  21.7236910   3.0833790
   6.6412130  18.5461690   9.7920410   6.2283310  19.3715400  10.0460400
   5.9088080  17.9606730   9.5996770   7.3312230  28.5921020  10.4801390
   6.8542790  29.3993210  10.2874000   6.6474020  27.9399350  10.6327600
   3.4845650  26.5460030   3.3508590   3.9241560  27.2884360   2.9363980
   3.4232540  26.7886600   4.2747550  10.9111440  28.3532960  15.5492780
  11.3871160  28.8315850  16.2281860  11.5318600  28.2850450  14.8238280
  10.3144690  25.5445810  12.7092790  10.4407750  25.3057690  11.7909970
  10.3566070  24.7130350  13.1814870   4.1761430  29.2473810  11.2787600
   4.6906100  29.1581820  12.0810030   3.3330510  29.5933510  11.5715510
   5.4191890  28.6679420   3.3418090   5.8748840  27.8868800   3.6556710
   5.7584410  29.3786240   3.8859270  10.1668700  17.5978270  13.6742530
   9.5512970  18.1057940  13.1457990   9.8465120  16.6976600  13.6168470
   2.2283020  16.4370160  11.1404720   1.7662390  16.6453180  11.9524660
   1.8261130  15.6229510  10.8375390   7.2287530  17.6579110  12.2701380
   6.3781120  17.3584860  12.5910450   7.0689320  17.9021120  11.3585200
   4.3237240  19.1580860  14.3700170   4.6490650  18.3244610  14.0302400
   5.1117570  19.6809380  14.5178500   3.5690060  17.3362120   3.8944580
   3.9619630  17.6534320   3.0813270   3.9306910  16.4574000   4.0089100
   4.1545200  19.9267870   7.9895360   3.4226320  20.4354680   8.3385460
   3.7569540  19.1097850   7.6884140   4.6171110  15.3801550   7.4018300
   4.6343850  15.8310200   8.2460150   4.3686690  14.4807190   7.6151740
   8.0441860  12.7933730  13.2404680   8.3687630  12.0623390  13.7662660
   8.0798370  12.4747370  12.3385670   7.9699700  22.9058840   6.8490710
   8.6898820  23.4014130   6.4586820   7.7681520  22.2276730   6.2044580
   3.3518500  22.9767900  12.7359710   3.2855810  22.0563570  12.4817300
   2.7223640  23.0743340  13.4504350   3.2835230  25.7988470  12.4863510
   3.2979770  24.8669430  12.2682420   2.5760330  25.8848230  13.1253280
   9.4946440  22.4395810  11.8332090   8.7694630  23.0324590  11.6361480
  10.0221900  22.4319350  11.0345460   5.0246030  24.1655980   5.3315940
   5.3769850  23.5684110   4.6717310   4.1408360  23.8400210   5.5024190
   2.7169130  27.4406040   9.5804010   3.3611350  27.6465420  10.2577430
   3.0798570  26.6794440   9.1274860   3.9901210  25.4438390   8.2981460
   4.6323440  24.7431550   8.4113630   4.5150560  26.2236830   8.1178350
   5.7638830  26.2433290  11.5017520   6.0995070  26.8299980  12.1795440
   4.8439170  26.1126000  11.7315310   4.8081010  16.5250780  10.0342380
   5.1761830  15.7045990  10.3621950   3.9479210  16.5852670  10.4498030
   1.7683000  19.1790370  10.2580350   2.2668250  19.6536190  10.9232200
   1.9105950  18.2553890  10.4650380   4.1742500  14.4844330   3.6983610
   4.0510280  14.5030460   2.7493120   5.1227060  14.5323270   3.8182010
   8.9749860  15.3958330  11.1008740   8.4723460  16.1363730  11.4402550
   9.7906520  15.7842330  10.7845530   7.2671870  20.6391510   4.5470100
   6.3262010  20.6541740   4.7217790   7.5815940  19.8527470   4.9930400
   9.2697450  27.8100360   6.2224360   9.3944870  28.6331530   6.6948170
  10.1363010  27.5991090   5.8748510   4.5837890  25.1957510  15.0302480
   3.9776050  25.2189110  14.2898230   4.2792000  24.4640550  15.5669730
   6.0138260  28.9237800  13.6411890   6.9660010  28.8395820  13.5912130
   5.8666480  29.5879510  14.3145680   7.6632360  24.7127420  14.1173660
   8.4041830  25.0503180  13.6141120   6.9005040  24.8819480  13.5643430
   6.3378020  22.7642250  12.6528870   6.7519040  22.9187330  13.5019290
   5.4029020  22.8897470  12.8154650   6.8100190  20.1038410  14.6568020
   7.3920960  19.3490730  14.5688500   6.9861960  20.6345850  13.8799500
   3.4357150  20.4478910  12.0062640   3.5553360  19.8520050  12.7457480
   4.2951150  20.4848600  11.5863940   5.7745050  21.0016100  10.5825150
   5.2480270  21.5258720   9.9790290   6.1176390  21.6343490  11.2134880
   5.0219350  16.6066070  13.4971480   4.3334870  15.9447610  13.4321470
   5.7425370  16.1604340  13.9419940   9.3342560  27.9529130  12.3261740
   8.7344550  28.0121690  11.5825660   9.4636460  27.0134110  12.4558590
  11.0360440  23.2944530   5.0107580  11.4069270  22.5111850   4.6043550
  11.6762370  23.9833630   4.8324880   8.0194200  24.6781110  10.4237900
   7.2054040  25.1078270  10.6863690   8.4268400  25.2899520   9.8106950
   9.9784980  20.6697790   2.3167600   9.6028580  19.9025720   1.8848890
   9.2488100  21.0520490   2.8042530   9.3684600  19.8169310  11.9507120
   9.1370690  19.5882060  11.0505070   9.6289150  20.7368860  11.9052010
   7.8072670  15.0425740  14.7286820   8.6842850  15.0509140  15.1120820
   7.8193510  14.3056580  14.1179170   9.2535940  18.8955280   5.6174840
   9.7773420  18.4017930   4.9865010   9.8395360  19.0305640   6.3622410
   9.4325660  18.9795150   9.1394390   8.4828370  18.9458690   9.2539380
   9.6138670  19.8895260   8.9044160  10.1723070  16.7889580   4.0904930
  10.0622350  16.6345620   5.0287200  10.9330660  16.2610520   3.8480340
   8.5188790  12.7283710  10.5487930   9.1561010  13.3417850  10.9147120
   8.6663680  12.7644370   9.6037160   8.0770250  29.4299710   3.9506170
   8.6729320  29.1084280   3.2740590   8.3348400  28.9571530   4.7419440
   1.8893270  13.8809900  13.4563030   1.8282160  14.4731730  14.2058440
   2.8293650  13.7735860  13.3113290   4.5267830  13.5379960  13.0955320
   5.1408240  13.8559250  12.4336400   5.0717390  13.0528550  13.7151180
  10.9443010  29.4371590  10.5017160  10.4501290  29.8340460   9.7844290
  10.3356300  28.8120800  10.8954440   5.2675870  12.1012100   9.4224610
   4.3935710  12.4347210   9.2197540   5.1586620  11.6285280  10.2476480
   6.1747850  14.3082970  10.8066330   5.8461210  13.4934730  10.4268060
   7.1230150  14.2652780  10.6832020   8.6282460  30.0795010   7.7803900
   8.1685430  30.8310820   7.4061920   7.9994920  29.3601480   7.7218700
   1.7973680  29.2791740   7.7821010   2.0851490  29.0246040   6.9054020
   2.3096900  28.7269100   8.3726580   3.0150690  13.0181940   8.3617520
   2.2322480  13.4927440   8.6414280   2.7213620  12.1136770   8.2530700
   7.5671760  13.7205040   6.4066610   8.0079850  13.6650140   5.5588210
   7.2979350  14.6363050   6.4776790   9.4310330  13.3520280   4.4175430
   9.3698730  12.4081500   4.2706450  10.2102360  13.4600370   4.9628890
   5.4029890  12.1011140   5.1116620   6.0059260  12.6731350   5.5865140
   4.6622880  12.6650580   4.8890520   1.8646040  30.2007840  15.1489210
   2.7913350  29.9652110  15.1925170   1.8496470  31.0279840  14.6675240
  10.0991100  29.7433410   2.1463460  10.2743290  29.0571150   1.5024380
   9.4012670  30.2680460   1.7540130   5.6525110  12.2806170  15.4911560
   5.5390560  12.6000780  16.3863080   6.4694850  12.6818680  15.1948840
   8.4323600  29.4277700  14.9730250   9.2248920  28.9326930  14.7656210
   8.7256750  30.1067840  15.5805860   2.6901300   3.3034170  81.6073020
   1.9143400   2.8234610  81.8971590   3.3414230   2.6239820  81.4329180
   6.7108730   7.7094360  80.3872150   6.2490260   6.9381600  80.7159320
   7.5234280   7.7360430  80.8924600   2.9372040   9.9952370  80.0076140
   2.3183480  10.4509870  79.4370580   3.7923820  10.1503830  79.6065840
   2.1310290   5.9791360  81.6143180   2.0618570   5.0381300  81.4532310
   2.8930150   6.0692770  82.1865750   3.8035390   4.8791610  77.4008050
   3.1852660   5.3441060  76.8370770   4.3158640   5.5719090  77.8177560
   8.7963840   7.8387690  83.8095470   8.1127360   8.5086800  83.8012140
   9.3358130   8.0368340  83.0440330   6.3322580   9.6831820  82.5240650
   6.3449740   9.2794110  81.6562910   5.7797800  10.4579110  82.4202080
   7.6268000   6.4048040  77.6130820   7.5164330   5.4622370  77.7380240
   7.6236250   6.7663680  78.4993580   5.7308020   4.5861660  83.8523260
   6.1476810   4.3721770  83.0176720   6.4547840   4.8434450  84.4231880
   3.1688280   2.0313360  76.9693310   2.2417560   1.9650740  77.1981780
   3.3213100   2.9693490  76.8548550   9.6770120   2.9848880  83.9439500
   8.8488750   3.0541970  83.4689630  10.2720600   3.5703190  83.4755330
   7.1985570   3.5933660  77.4728560   6.5797990   3.2553210  76.8254860
   7.1810020   2.9493420  78.1807750   7.3312230   9.8177530  85.5775350
   6.8542790  10.6249720  85.3847960   6.6474020   9.1655860  85.7301560
   5.3750270   2.8320470  74.4801310   5.8143550   1.9942900  74.3339130
   6.0878690   3.4649870  74.5665450   3.4845650   7.7716540  78.4482550
   3.9241560   8.5140870  78.0337940   3.4232540   8.0143110  79.3721510
   6.1515830  10.7585660  75.8045560   5.9916970  10.4688600  76.7027390
   5.9862540   9.9825790  75.2690790   5.8541960   8.2673220  74.3643560
   5.1607120   8.2650510  73.7045840   6.5964820   7.8432540  73.9337730
   5.4191890   9.8935930  78.4392050   5.8748840   9.1125310  78.7530670
   5.7584410  10.6042750  78.9833230   7.9699700   4.1315350  81.9464670
   8.6898820   4.6270640  81.5560780   7.7681520   3.4533240  81.3018540
   9.4459550   8.0627060  76.5818210   8.8035710   7.4082680  76.8561930
   9.0590210   8.4682150  75.8058880   5.0246030   5.3912490  80.4289900
   5.3769850   4.7940620  79.7691270   4.1408360   5.0656720  80.5998150
   2.7169130   8.6662550  84.6777970   3.3611350   8.8721930  85.3551390
   3.0798570   7.9050950  84.2248820   3.9901210   6.6694900  83.3955420
   4.6323440   5.9688060  83.5087590   4.5150560   7.4493340  83.2152310
   7.8356930   6.9543520  73.1194560   7.6094510   6.2373960  73.7119200
   7.4453130   6.7055960  72.2816310   7.4173180   4.8715460  74.7808720
   7.1294880   5.3328150  75.5686600   8.2125350   4.4113230  75.0492940
   2.6201180   8.4269820  73.3737880   2.7213160   8.2233810  72.4439860
   1.7202920   8.1728100  73.5785660   9.2697450   9.0356870  81.3198320
   9.3944870   9.8588040  81.7922130  10.1363010   8.8247600  80.9722470
   8.9047460   9.5288520  74.2377760   8.6188970   9.1153660  73.4231940
   8.7067010  10.4576230  74.1178280   3.6097420   4.5841830  73.2825360
   3.0607520   5.0311130  73.9268100   4.2316680   4.0791080  73.8063030
   1.7900180   2.5670360  72.4267760   2.3105840   1.8519380  72.0608910
   2.4368580   3.2056230  72.7268270   2.3548210  10.6481970  74.7169500
   3.2499000  10.9866940  74.7388260   2.3865840   9.9261380  74.0893780
  10.5744010   6.9203460  72.7605410   9.7436970   6.9880110  73.2312640
  10.7515840   7.8107580  72.4572270  10.0300470   3.6650940  75.2639610
  10.7919380   4.2347590  75.3699300  10.0454840   3.0978140  76.0347920
  11.0360440   4.5201040  80.1081540  11.4069270   3.7368360  79.7017510
  11.6762370   5.2090140  79.9298840   8.0194200   5.9037620  85.5211860
   7.2054040   6.3334780  85.7837650   8.4268400   6.5156030  84.9080910
  10.0819640   3.9585310  72.4212130  10.3568480   4.8664190  72.2931350
   9.8930380   3.8947840  73.3574120   8.0770250  10.6556220  79.0480130
   8.6729320  10.3340790  78.3714550   8.3348400  10.1828040  79.8393400
  10.9443010  10.6628100  85.5991120  10.4501290  11.0596970  84.8818250
  10.3356300  10.0377310  85.9928400   8.6282460  11.3051520  82.8777860
   8.1685430  12.0567330  82.5035880   7.9994920  10.5857990  82.8192660
   1.7973680  10.5048250  82.8794970   2.0851490  10.2502550  82.0027980
   2.3096900   9.9525610  83.4700540  10.0991100  10.9689920  77.2437420
  10.2743290  10.2827660  76.5998340   9.4012670  11.4936970  76.8514090
   2.6901300   3.3034170  62.8329530   1.9143400   2.8234610  63.1228100
   3.3414230   2.6239820  62.6585690   6.7108730   7.7094360  61.6128660
   6.2490260   6.9381600  61.9415830   7.5234280   7.7360430  62.1181110
   2.9372040   9.9952370  61.2332650   2.3183480  10.4509870  60.6627090
   3.7923820  10.1503830  60.8322350   2.1310290   5.9791360  62.8399690
   2.0618570   5.0381300  62.6788820   2.8930150   6.0692770  63.4122260
   3.8035390   4.8791610  58.6264560   3.1852660   5.3441060  58.0627280
   4.3158640   5.5719090  59.0434070   8.7963840   7.8387690  65.0351980
   8.1127360   8.5086800  65.0268650   9.3358130   8.0368340  64.2696840
   6.3322580   9.6831820  63.7497160   6.3449740   9.2794110  62.8819420
   5.7797800  10.4579110  63.6458590   7.6268000   6.4048040  58.8387330
   7.5164330   5.4622370  58.9636750   7.6236250   6.7663680  59.7250090
   5.7308020   4.5861660  65.0779770   6.1476810   4.3721770  64.2433230
   6.4547840   4.8434450  65.6488390   3.1688280   2.0313360  58.1949820
   2.2417560   1.9650740  58.4238290   3.3213100   2.9693490  58.0805060
   9.6770120   2.9848880  65.1696010   8.8488750   3.0541970  64.6946140
  10.2720600   3.5703190  64.7011840   7.1985570   3.5933660  58.6985070
   6.5797990   3.2553210  58.0511370   7.1810020   2.9493420  59.4064260
   7.3312230   9.8177530  66.8031860   6.8542790  10.6249720  66.6104470
   6.6474020   9.1655860  66.9558070   5.3750270   2.8320470  55.7057820
   5.8143550   1.9942900  55.5595640   6.0878690   3.4649870  55.7921960
   3.4845650   7.7716540  59.6739060   3.9241560   8.5140870  59.2594450
   3.4232540   8.0143110  60.5978020  10.9111440   9.5789470  71.8723250
  11.3871160  10.0572360  72.5512330  11.5318600   9.5106960  71.1468750
  10.3144690   6.7702320  69.0323260  10.4407750   6.5314200  68.1140440
  10.3566070   5.9386860  69.5045340   4.1761430  10.4730320  67.6018070
   4.6906100  10.3838330  68.4040500   3.3330510  10.8190020  67.8945980
   6.1515830  10.7585660  57.0302070   5.9916970  10.4688600  57.9283900
   5.9862540   9.9825790  56.4947300   5.8541960   8.2673220  55.5900070
   5.1607120   8.2650510  54.9302350   6.5964820   7.8432540  55.1594240
   5.4191890   9.8935930  59.6648560   5.8748840   9.1125310  59.9787180
   5.7584410  10.6042750  60.2089740   7.9699700   4.1315350  63.1721180
   8.6898820   4.6270640  62.7817290   7.7681520   3.4533240  62.5275050
   3.3518500   4.2024410  69.0590180   3.2855810   3.2820080  68.8047770
   2.7223640   4.2999850  69.7734820   3.2835230   7.0244980  68.8093980
   3.2979770   6.0925940  68.5912890   2.5760330   7.1104740  69.4483750
   9.4946440   3.6652320  68.1562560   8.7694630   4.2581100  67.9591950
  10.0221900   3.6575860  67.3575930   9.4459550   8.0627060  57.8074720
   8.8035710   7.4082680  58.0818440   9.0590210   8.4682150  57.0315390
   5.0246030   5.3912490  61.6546410   5.3769850   4.7940620  60.9947780
   4.1408360   5.0656720  61.8254660   2.7169130   8.6662550  65.9034480
   3.3611350   8.8721930  66.5807900   3.0798570   7.9050950  65.4505330
   3.9901210   6.6694900  64.6211930   4.6323440   5.9688060  64.7344100
   4.5150560   7.4493340  64.4408820   7.8356930   6.9543520  54.3451070
   7.6094510   6.2373960  54.9375710   7.4453130   6.7055960  53.5072820
   5.7638830   7.4689800  67.8247990   6.0995070   8.0556490  68.5025910
   4.8439170   7.3382510  68.0545780   7.4173180   4.8715460  56.0065230
   7.1294880   5.3328150  56.7943110   8.2125350   4.4113230  56.2749450
   2.6201180   8.4269820  54.5994390   2.7213160   8.2233810  53.6696370
   1.7202920   8.1728100  54.8042170   9.2697450   9.0356870  62.5454830
   9.3944870   9.8588040  63.0178640  10.1363010   8.8247600  62.1978980
   4.5837890   6.4214020  71.3532950   3.9776050   6.4445620  70.6128700
   4.2792000   5.6897060  71.8900200   6.0138260  10.1494310  69.9642360
   6.9660010  10.0652330  69.9142600   5.8666480  10.8136020  70.6376150
   8.9047460   9.5288520  55.4634270   8.6188970   9.1153660  54.6488450
   8.7067010  10.4576230  55.3434790   3.6097420   4.5841830  54.5081870
   3.0607520   5.0311130  55.1524610   4.2316680   4.0791080  55.0319540
   7.6632360   5.9383930  70.4404130   8.4041830   6.2759690  69.9371590
   6.9005040   6.1075990  69.8873900   1.7900180   2.5670360  53.6524270
   2.3105840   1.8519380  53.2865420   2.4368580   3.2056230  53.9524780
   6.3378020   3.9898760  68.9759340   6.7519040   4.1443840  69.8249760
   5.4029020   4.1153980  69.1385120   5.7745050   2.2272610  66.9055620
   5.2480270   2.7515230  66.3020760   6.1176390   2.8600000  67.5365350
   2.3548210  10.6481970  55.9426010   3.2499000  10.9866940  55.9644770
   2.3865840   9.9261380  55.3150290   9.3342560   9.1785640  68.6492210
   8.7344550   9.2378200  67.9056130   9.4636460   8.2390620  68.7789060
  10.5744010   6.9203460  53.9861920   9.7436970   6.9880110  54.4569150
  10.7515840   7.8107580  53.6828780  10.0300470   3.6650940  56.4896120
  10.7919380   4.2347590  56.5955810  10.0454840   3.0978140  57.2604430
  11.0360440   4.5201040  61.3338050  11.4069270   3.7368360  60.9274020
  11.6762370   5.2090140  61.1555350   8.0194200   5.9037620  66.7468370
   7.2054040   6.3334780  67.0094160   8.4268400   6.5156030  66.1337420
  10.0819640   3.9585310  53.6468640  10.3568480   4.8664190  53.5187860
   9.8930380   3.8947840  54.5830630   8.0770250  10.6556220  60.2736640
   8.6729320  10.3340790  59.5971060   8.3348400  10.1828040  61.0649910
  10.9443010  10.6628100  66.8247630  10.4501290  11.0596970  66.1074760
  10.3356300  10.0377310  67.2184910   8.6282460  11.3051520  64.1034370
   8.1685430  12.0567330  63.7292390   7.9994920  10.5857990  64.0449170
   1.7973680  10.5048250  64.1051480   2.0851490  10.2502550  63.2284490
   2.3096900   9.9525610  64.6957050   1.8646040  11.4264350  71.4719680
   2.7913350  11.1908620  71.5155640   1.8496470  12.2536350  70.9905710
  10.0991100  10.9689920  58.4693930  10.2743290  10.2827660  57.8254850
   9.4012670  11.4936970  58.0770600   8.4323600  10.6534210  71.2960720
   9.2248920  10.1583440  71.0886680   8.7256750  11.3324350  71.9036330
   2.6901300   3.3034170  44.0586040   1.9143400   2.8234610  44.3484610
   3.3414230   2.6239820  43.8842200   6.7108730   7.7094360  42.8385170
   6.2490260   6.9381600  43.1672340   7.5234280   7.7360430  43.3437620
   2.9372040   9.9952370  42.4589160   2.3183480  10.4509870  41.8883600
   3.7923820  10.1503830  42.0578860   2.1310290   5.9791360  44.0656200
   2.0618570   5.0381300  43.9045330   2.8930150   6.0692770  44.6378770
   3.8035390   4.8791610  39.8521070   3.1852660   5.3441060  39.2883790
   4.3158640   5.5719090  40.2690580   8.7963840   7.8387690  46.2608490
   8.1127360   8.5086800  46.2525160   9.3358130   8.0368340  45.4953350
   6.3322580   9.6831820  44.9753670   6.3449740   9.2794110  44.1075930
   5.7797800  10.4579110  44.8715100   7.6268000   6.4048040  40.0643840
   7.5164330   5.4622370  40.1893260   7.6236250   6.7663680  40.9506600
   5.7308020   4.5861660  46.3036280   6.1476810   4.3721770  45.4689740
   6.4547840   4.8434450  46.8744900   3.1688280   2.0313360  39.4206330
   2.2417560   1.9650740  39.6494800   3.3213100   2.9693490  39.3061570
   9.6770120   2.9848880  46.3952520   8.8488750   3.0541970  45.9202650
  10.2720600   3.5703190  45.9268350   7.1985570   3.5933660  39.9241580
   6.5797990   3.2553210  39.2767880   7.1810020   2.9493420  40.6320770
   7.3312230   9.8177530  48.0288370   6.8542790  10.6249720  47.8360980
   6.6474020   9.1655860  48.1814580   5.3750270   2.8320470  36.9314330
   5.8143550   1.9942900  36.7852150   6.0878690   3.4649870  37.0178470
   3.4845650   7.7716540  40.8995570   3.9241560   8.5140870  40.4850960
   3.4232540   8.0143110  41.8234530  10.9111440   9.5789470  53.0979760
  11.3871160  10.0572360  53.7768840  11.5318600   9.5106960  52.3725260
  10.3144690   6.7702320  50.2579770  10.4407750   6.5314200  49.3396950
  10.3566070   5.9386860  50.7301850   4.1761430  10.4730320  48.8274580
   4.6906100  10.3838330  49.6297010   3.3330510  10.8190020  49.1202490
   6.1515830  10.7585660  38.2558580   5.9916970  10.4688600  39.1540410
   5.9862540   9.9825790  37.7203810   5.8541960   8.2673220  36.8156580
   5.1607120   8.2650510  36.1558860   6.5964820   7.8432540  36.3850750
   5.4191890   9.8935930  40.8905070   5.8748840   9.1125310  41.2043690
   5.7584410  10.6042750  41.4346250   7.9699700   4.1315350  44.3977690
   8.6898820   4.6270640  44.0073800   7.7681520   3.4533240  43.7531560
   3.3518500   4.2024410  50.2846690   3.2855810   3.2820080  50.0304280
   2.7223640   4.2999850  50.9991330   3.2835230   7.0244980  50.0350490
   3.2979770   6.0925940  49.8169400   2.5760330   7.1104740  50.6740260
   9.4946440   3.6652320  49.3819070   8.7694630   4.2581100  49.1848460
  10.0221900   3.6575860  48.5832440   9.4459550   8.0627060  39.0331230
   8.8035710   7.4082680  39.3074950   9.0590210   8.4682150  38.2571900
   5.0246030   5.3912490  42.8802920   5.3769850   4.7940620  42.2204290
   4.1408360   5.0656720  43.0511170   2.7169130   8.6662550  47.1290990
   3.3611350   8.8721930  47.8064410   3.0798570   7.9050950  46.6761840
   3.9901210   6.6694900  45.8468440   4.6323440   5.9688060  45.9600610
   4.5150560   7.4493340  45.6665330   7.8356930   6.9543520  35.5707580
   7.6094510   6.2373960  36.1632220   7.4453130   6.7055960  34.7329330
   5.7638830   7.4689800  49.0504500   6.0995070   8.0556490  49.7282420
   4.8439170   7.3382510  49.2802290   7.4173180   4.8715460  37.2321740
   7.1294880   5.3328150  38.0199620   8.2125350   4.4113230  37.5005960
   2.6201180   8.4269820  35.8250900   2.7213160   8.2233810  34.8952880
   1.7202920   8.1728100  36.0298680   9.2697450   9.0356870  43.7711340
   9.3944870   9.8588040  44.2435150  10.1363010   8.8247600  43.4235490
   4.5837890   6.4214020  52.5789460   3.9776050   6.4445620  51.8385210
   4.2792000   5.6897060  53.1156710   6.0138260  10.1494310  51.1898870
   6.9660010  10.0652330  51.1399110   5.8666480  10.8136020  51.8632660
   8.9047460   9.5288520  36.6890780   8.6188970   9.1153660  35.8744960
   8.7067010  10.4576230  36.5691300   3.6097420   4.5841830  35.7338380
   3.0607520   5.0311130  36.3781120   4.2316680   4.0791080  36.2576050
   7.6632360   5.9383930  51.6660640   8.4041830   6.2759690  51.1628100
   6.9005040   6.1075990  51.1130410   1.7900180   2.5670360  34.8780780
   2.3105840   1.8519380  34.5121930   2.4368580   3.2056230  35.1781290
   6.3378020   3.9898760  50.2015850   6.7519040   4.1443840  51.0506270
   5.4029020   4.1153980  50.3641630   5.7745050   2.2272610  48.1312130
   5.2480270   2.7515230  47.5277270   6.1176390   2.8600000  48.7621860
   2.3548210  10.6481970  37.1682520   3.2499000  10.9866940  37.1901280
   2.3865840   9.9261380  36.5406800   9.3342560   9.1785640  49.8748720
   8.7344550   9.2378200  49.1312640   9.4636460   8.2390620  50.0045570
  10.5744010   6.9203460  35.2118430   9.7436970   6.9880110  35.6825660
  10.7515840   7.8107580  34.9085290  10.0300470   3.6650940  37.7152630
  10.7919380   4.2347590  37.8212320  10.0454840   3.0978140  38.4860940
  11.0360440   4.5201040  42.5594560  11.4069270   3.7368360  42.1530530
  11.6762370   5.2090140  42.3811860   8.0194200   5.9037620  47.9724880
   7.2054040   6.3334780  48.2350670   8.4268400   6.5156030  47.3593930
  10.0819640   3.9585310  34.8725150  10.3568480   4.8664190  34.7444370
   9.8930380   3.8947840  35.8087140   8.0770250  10.6556220  41.4993150
   8.6729320  10.3340790  40.8227570   8.3348400  10.1828040  42.2906420
  10.9443010  10.6628100  48.0504140  10.4501290  11.0596970  47.3331270
  10.3356300  10.0377310  48.4441420   8.6282460  11.3051520  45.3290880
   8.1685430  12.0567330  44.9548900   7.9994920  10.5857990  45.2705680
   1.7973680  10.5048250  45.3307990   2.0851490  10.2502550  44.4541000
   2.3096900   9.9525610  45.9213560   1.8646040  11.4264350  52.6976190
   2.7913350  11.1908620  52.7412150   1.8496470  12.2536350  52.2162220
  10.0991100  10.9689920  39.6950440  10.2743290  10.2827660  39.0511360
   9.4012670  11.4936970  39.3027110   8.4323600  10.6534210  52.5217230
   9.2248920  10.1583440  52.3143190   8.7256750  11.3324350  53.1292840
   2.6901300   3.3034170  25.2842550   1.9143400   2.8234610  25.5741120
   3.3414230   2.6239820  25.1098710   6.7108730   7.7094360  24.0641680
   6.2490260   6.9381600  24.3928850   7.5234280   7.7360430  24.5694130
   2.9372040   9.9952370  23.6845670   2.3183480  10.4509870  23.1140110
   3.7923820  10.1503830  23.2835370   2.1310290   5.9791360  25.2912710
   2.0618570   5.0381300  25.1301840   2.8930150   6.0692770  25.8635280
   3.8035390   4.8791610  21.0777580   3.1852660   5.3441060  20.5140300
   4.3158640   5.5719090  21.4947090   8.7963840   7.8387690  27.4865000
   8.1127360   8.5086800  27.4781670   9.3358130   8.0368340  26.7209860
   6.3322580   9.6831820  26.2010180   6.3449740   9.2794110  25.3332440
   5.7797800  10.4579110  26.0971610   7.6268000   6.4048040  21.2900350
   7.5164330   5.4622370  21.4149770   7.6236250   6.7663680  22.1763110
   5.7308020   4.5861660  27.5292790   6.1476810   4.3721770  26.6946250
   6.4547840   4.8434450  28.1001410   3.1688280   2.0313360  20.6462840
   2.2417560   1.9650740  20.8751310   3.3213100   2.9693490  20.5318080
   9.6770120   2.9848880  27.6209030   8.8488750   3.0541970  27.1459160
  10.2720600   3.5703190  27.1524860   7.1985570   3.5933660  21.1498090
   6.5797990   3.2553210  20.5024390   7.1810020   2.9493420  21.8577280
   7.3312230   9.8177530  29.2544880   6.8542790  10.6249720  29.0617490
   6.6474020   9.1655860  29.4071090   5.3750270   2.8320470  18.1570840
   5.8143550   1.9942900  18.0108660   6.0878690   3.4649870  18.2434980
   3.4845650   7.7716540  22.1252080   3.9241560   8.5140870  21.7107470
   3.4232540   8.0143110  23.0491040  10.9111440   9.5789470  34.3236270
  11.3871160  10.0572360  35.0025350  11.5318600   9.5106960  33.5981770
  10.3144690   6.7702320  31.4836280  10.4407750   6.5314200  30.5653460
  10.3566070   5.9386860  31.9558360   4.1761430  10.4730320  30.0531090
   4.6906100  10.3838330  30.8553520   3.3330510  10.8190020  30.3459000
   6.1515830  10.7585660  19.4815090   5.9916970  10.4688600  20.3796920
   5.9862540   9.9825790  18.9460320   5.8541960   8.2673220  18.0413090
   5.1607120   8.2650510  17.3815370   6.5964820   7.8432540  17.6107260
   5.4191890   9.8935930  22.1161580   5.8748840   9.1125310  22.4300200
   5.7584410  10.6042750  22.6602760   7.9699700   4.1315350  25.6234200
   8.6898820   4.6270640  25.2330310   7.7681520   3.4533240  24.9788070
   3.3518500   4.2024410  31.5103200   3.2855810   3.2820080  31.2560790
   2.7223640   4.2999850  32.2247840   3.2835230   7.0244980  31.2607000
   3.2979770   6.0925940  31.0425910   2.5760330   7.1104740  31.8996770
   9.4946440   3.6652320  30.6075580   8.7694630   4.2581100  30.4104970
  10.0221900   3.6575860  29.8088950   9.4459550   8.0627060  20.2587740
   8.8035710   7.4082680  20.5331460   9.0590210   8.4682150  19.4828410
   5.0246030   5.3912490  24.1059430   5.3769850   4.7940620  23.4460800
   4.1408360   5.0656720  24.2767680   2.7169130   8.6662550  28.3547500
   3.3611350   8.8721930  29.0320920   3.0798570   7.9050950  27.9018350
   3.9901210   6.6694900  27.0724950   4.6323440   5.9688060  27.1857120
   4.5150560   7.4493340  26.8921840   7.8356930   6.9543520  16.7964090
   7.6094510   6.2373960  17.3888730   7.4453130   6.7055960  15.9585840
   5.7638830   7.4689800  30.2761010   6.0995070   8.0556490  30.9538930
   4.8439170   7.3382510  30.5058800   7.4173180   4.8715460  18.4578250
   7.1294880   5.3328150  19.2456130   8.2125350   4.4113230  18.7262470
   2.6201180   8.4269820  17.0507410   2.7213160   8.2233810  16.1209390
   1.7202920   8.1728100  17.2555190   9.2697450   9.0356870  24.9967850
   9.3944870   9.8588040  25.4691660  10.1363010   8.8247600  24.6492000
   4.5837890   6.4214020  33.8045970   3.9776050   6.4445620  33.0641720
   4.2792000   5.6897060  34.3413220   6.0138260  10.1494310  32.4155380
   6.9660010  10.0652330  32.3655620   5.8666480  10.8136020  33.0889170
   8.9047460   9.5288520  17.9147290   8.6188970   9.1153660  17.1001470
   8.7067010  10.4576230  17.7947810   3.6097420   4.5841830  16.9594890
   3.0607520   5.0311130  17.6037630   4.2316680   4.0791080  17.4832560
   7.6632360   5.9383930  32.8917150   8.4041830   6.2759690  32.3884610
   6.9005040   6.1075990  32.3386920   1.7900180   2.5670360  16.1037290
   2.3105840   1.8519380  15.7378440   2.4368580   3.2056230  16.4037800
   6.3378020   3.9898760  31.4272360   6.7519040   4.1443840  32.2762780
   5.4029020   4.1153980  31.5898140   5.7745050   2.2272610  29.3568640
   5.2480270   2.7515230  28.7533780   6.1176390   2.8600000  29.9878370
   2.3548210  10.6481970  18.3939030   3.2499000  10.9866940  18.4157790
   2.3865840   9.9261380  17.7663310   9.3342560   9.1785640  31.1005230
   8.7344550   9.2378200  30.3569150   9.4636460   8.2390620  31.2302080
  10.5744010   6.9203460  16.4374940   9.7436970   6.9880110  16.9082170
  10.7515840   7.8107580  16.1341800  10.0300470   3.6650940  18.9409140
  10.7919380   4.2347590  19.0468830  10.0454840   3.0978140  19.7117450
  11.0360440   4.5201040  23.7851070  11.4069270   3.7368360  23.3787040
  11.6762370   5.2090140  23.6068370   8.0194200   5.9037620  29.1981390
   7.2054040   6.3334780  29.4607180   8.4268400   6.5156030  28.5850440
  10.0819640   3.9585310  16.0981660  10.3568480   4.8664190  15.9700880
   9.8930380   3.8947840  17.0343650   8.0770250  10.6556220  22.7249660
   8.6729320  10.3340790  22.0484080   8.3348400  10.1828040  23.5162930
  10.9443010  10.6628100  29.2760650  10.4501290  11.0596970  28.5587780
  10.3356300  10.0377310  29.6697930   8.6282460  11.3051520  26.5547390
   8.1685430  12.0567330  26.1805410   7.9994920  10.5857990  26.4962190
   1.7973680  10.5048250  26.5564500   2.0851490  10.2502550  25.6797510
   2.3096900   9.9525610  27.1470070   1.8646040  11.4264350  33.9232700
   2.7913350  11.1908620  33.9668660   1.8496470  12.2536350  33.4418730
  10.0991100  10.9689920  20.9206950  10.2743290  10.2827660  20.2767870
   9.4012670  11.4936970  20.5283620   8.4323600  10.6534210  33.7473740
   9.2248920  10.1583440  33.5399700   8.7256750  11.3324350  34.3549350
   2.6901300   3.3034170   6.5099060   1.9143400   2.8234610   6.7997630
   3.3414230   2.6239820   6.3355220   6.7108730   7.7094360   5.2898190
   6.2490260   6.9381600   5.6185360   7.5234280   7.7360430   5.7950640
   2.9372040   9.9952370   4.9102180   2.3183480  10.4509870   4.3396620
   3.7923820  10.1503830   4.5091880   2.1310290   5.9791360   6.5169220
   2.0618570   5.0381300   6.3558350   2.8930150   6.0692770   7.0891790
   3.8035390   4.8791610   2.3034090   3.1852660   5.3441060   1.7396810
   4.3158640   5.5719090   2.7203600   8.7963840   7.8387690   8.7121510
   8.1127360   8.5086800   8.7038180   9.3358130   8.0368340   7.9466370
   6.3322580   9.6831820   7.4266690   6.3449740   9.2794110   6.5588950
   5.7797800  10.4579110   7.3228120   7.6268000   6.4048040   2.5156860
   7.5164330   5.4622370   2.6406280   7.6236250   6.7663680   3.4019620
   5.7308020   4.5861660   8.7549300   6.1476810   4.3721770   7.9202760
   6.4547840   4.8434450   9.3257920   3.1688280   2.0313360   1.8719350
   2.2417560   1.9650740   2.1007820   3.3213100   2.9693490   1.7574590
   9.6770120   2.9848880   8.8465540   8.8488750   3.0541970   8.3715670
  10.2720600   3.5703190   8.3781370   7.1985570   3.5933660   2.3754600
   6.5797990   3.2553210   1.7280900   7.1810020   2.9493420   3.0833790
   7.3312230   9.8177530  10.4801390   6.8542790  10.6249720  10.2874000
   6.6474020   9.1655860  10.6327600   3.4845650   7.7716540   3.3508590
   3.9241560   8.5140870   2.9363980   3.4232540   8.0143110   4.2747550
  10.9111440   9.5789470  15.5492780  11.3871160  10.0572360  16.2281860
  11.5318600   9.5106960  14.8238280  10.3144690   6.7702320  12.7092790
  10.4407750   6.5314200  11.7909970  10.3566070   5.9386860  13.1814870
   4.1761430  10.4730320  11.2787600   4.6906100  10.3838330  12.0810030
   3.3330510  10.8190020  11.5715510   5.4191890   9.8935930   3.3418090
   5.8748840   9.1125310   3.6556710   5.7584410  10.6042750   3.8859270
   7.9699700   4.1315350   6.8490710   8.6898820   4.6270640   6.4586820
   7.7681520   3.4533240   6.2044580   3.3518500   4.2024410  12.7359710
   3.2855810   3.2820080  12.4817300   2.7223640   4.2999850  13.4504350
   3.2835230   7.0244980  12.4863510   3.2979770   6.0925940  12.2682420
   2.5760330   7.1104740  13.1253280   9.4946440   3.6652320  11.8332090
   8.7694630   4.2581100  11.6361480  10.0221900   3.6575860  11.0345460
   5.0246030   5.3912490   5.3315940   5.3769850   4.7940620   4.6717310
   4.1408360   5.0656720   5.5024190   2.7169130   8.6662550   9.5804010
   3.3611350   8.8721930  10.2577430   3.0798570   7.9050950   9.1274860
   3.9901210   6.6694900   8.2981460   4.6323440   5.9688060   8.4113630
   4.5150560   7.4493340   8.1178350   5.7638830   7.4689800  11.5017520
   6.0995070   8.0556490  12.1795440   4.8439170   7.3382510  11.7315310
   9.2697450   9.0356870   6.2224360   9.3944870   9.8588040   6.6948170
  10.1363010   8.8247600   5.8748510   4.5837890   6.4214020  15.0302480
   3.9776050   6.4445620  14.2898230   4.2792000   5.6897060  15.5669730
   6.0138260  10.1494310  13.6411890   6.9660010  10.0652330  13.5912130
   5.8666480  10.8136020  14.3145680   7.6632360   5.9383930  14.1173660
   8.4041830   6.2759690  13.6141120   6.9005040   6.1075990  13.5643430
   6.3378020   3.9898760  12.6528870   6.7519040   4.1443840  13.5019290
   5.4029020   4.1153980  12.8154650   5.7745050   2.2272610  10.5825150
   5.2480270   2.7515230   9.9790290   6.1176390   2.8600000  11.2134880
   9.3342560   9.1785640  12.3261740   8.7344550   9.2378200  11.5825660
   9.4636460   8.2390620  12.4558590  11.0360440   4.5201040   5.0107580
  11.4069270   3.7368360   4.6043550  11.6762370   5.2090140   4.8324880
   8.0194200   5.9037620  10.4237900   7.2054040   6.3334780  10.6863690
   8.4268400   6.5156030   9.8106950   8.0770250  10.6556220   3.9506170
   8.6729320  10.3340790   3.2740590   8.3348400  10.1828040   4.7419440
  10.9443010  10.6628100  10.5017160  10.4501290  11.0596970   9.7844290
  10.3356300  10.0377310  10.8954440   8.6282460  11.3051520   7.7803900
   8.1685430  12.0567330   7.4061920   7.9994920  10.5857990   7.7218700
   1.7973680  10.5048250   7.7821010   2.0851490  10.2502550   6.9054020
   2.3096900   9.9525610   8.3726580   1.8646040  11.4264350  15.1489210
   2.7913350  11.1908620  15.1925170   1.8496470  12.2536350  14.6675240
  10.0991100  10.9689920   2.1463460  10.2743290  10.2827660   1.5024380
   9.4012670  11.4936970   1.7540130   8.4323600  10.6534210  14.9730250
   9.2248920  10.1583440  14.7656210   8.7256750  11.3324350  15.5805860
  78.6719840  79.6664570  87.6723290  90.0000000  90.0000000  90.0000000
