JZ4_h.pdb
22
  167JZ4     C1    1   2.429  -2.412  -0.007
  167JZ4     C2    2   2.155  -2.721  -0.411
  167JZ4     C3    3   2.207  -2.675  -0.533
  167JZ4     C4    4   2.267  -2.551  -0.545
  167JZ4     C5    5   2.277  -2.473  -0.429
  167JZ4     C6    6   2.169  -2.646  -0.295
  167JZ4     C7    7   2.229  -2.519  -0.307
  167JZ4     C8    8   2.246  -2.441  -0.181
  167JZ4     C9    9   2.393  -2.470  -0.139
  167JZ4     O1   10   2.341  -2.354  -0.434
  167JZ4     H1   11   2.531  -2.436   0.015
  167JZ4     H2   12   2.366  -2.453   0.069
  167JZ4     H3   13   2.417  -2.306  -0.010
  167JZ4     H4   14   2.107  -2.812  -0.408
  167JZ4     H5   15   2.199  -2.735  -0.617
  167JZ4     H6   16   2.304  -2.518  -0.635
  167JZ4     H7   17   2.137  -2.681  -0.204
  167JZ4     H8   18   2.178  -2.475  -0.106
  167JZ4     H9   19   2.227  -2.337  -0.193
  167JZ4    H10   20   2.458  -2.429  -0.214
  167JZ4    H11   21   2.402  -2.577  -0.131
  167JZ4    H12   22   2.374  -2.321  -0.516
   0.00000   0.00000   0.00000
