Ligand GRO file
10
  166JZ4     O1 2624   3.761   3.054   4.872  0.2264  0.4622  0.0382
  166JZ4     C5 2626   3.723   2.922   4.874 -0.3958  0.4248 -0.0212
  166JZ4     C4 2627   3.677   2.875   4.753  0.0284  0.9005 -0.8106
  166JZ4     C3 2629   3.613   2.749   4.736 -0.6868 -0.0686 -0.0892
  166JZ4     C2 2631   3.602   2.674   4.855 -0.2098  0.0028  0.1001
  166JZ4     C6 2633   3.656   2.719   4.977 -0.5873  0.1227 -0.6882
  166JZ4     C7 2635   3.717   2.842   4.987 -0.3940  0.5059  0.9145
  166JZ4     C8 2636   3.762   2.875   5.130 -0.4123  0.1221  0.7164
  166JZ4     C9 2639   3.907   2.928   5.141  0.6147  0.5591 -0.4912
  166JZ4     C1 2642   3.928   2.998   5.272  0.1463  0.5680 -0.0817
0.0 0.0 0.0
Ligand GRO file
