Ligand GRO file
10
  166JZ4     O1 2624   3.809   3.106   4.875  0.3082  0.2166  0.4347
  166JZ4     C5 2626   3.782   2.980   4.919  0.4917 -0.3406 -0.3393
  166JZ4     C4 2627   3.772   2.874   4.828  0.3562  0.2973 -0.7654
  166JZ4     C3 2629   3.735   2.741   4.872 -0.0715 -0.1638  0.1421
  166JZ4     C2 2631   3.708   2.722   5.007 -0.1337  0.1590  0.2224
  166JZ4     C6 2633   3.723   2.829   5.098 -0.0077  0.7564 -0.3266
  166JZ4     C7 2635   3.752   2.961   5.058 -0.1795 -0.0848 -0.2562
  166JZ4     C8 2636   3.760   3.079   5.156  0.1563  0.3821 -0.2571
  166JZ4     C9 2639   3.897   3.102   5.210 -0.5316  0.5736  0.0656
  166JZ4     C1 2642   3.978   2.977   5.262 -0.3026  0.8051 -0.4058
0.0 0.0 0.0
Ligand GRO file
